 *******************************************************************************
 ** Site#: 33848        For non-commercial use only    Version 17.240L 64BITS **
 *******************************************************************************
 ** Cite this program as: MOPAC2016, Version: 17.240L, James J. P. Stewart,   **
 ** Stewart Computational Chemistry, web-site: HTTP://OpenMOPAC.net.          **
 *******************************************************************************
 **                                                                           **
 **                                MOPAC2016                                  **
 **                                                                           **
 *******************************************************************************

                              PM6 CALCULATION RESULTS


 *******************************************************************************
 *  CALCULATION DONE:                                Sun Feb 16 02:51:00 2020  *
 *  PM6        - The PM6 Hamiltonian to be used
 *  SINGLET    - SPIN STATE DEFINED AS A SINGLET
 *
 *
 *
 *                 CHARGE ON SYSTEM = 0
 *
 *
 *
 *  T=         - A TIME OF 172800.0 SECONDS REQUESTED
 *  DUMP=N     - RESTART FILE WRITTEN EVERY  7200.000 SECONDS
 *  AUX        - OUTPUT AUXILIARY INFORMATION
 *  LARGE      - EXPANDED OUTPUT TO BE PRINTED
 *******************************************************************************
 AUX LARGE CHARGE=0 SINGLET PM6
 O -0.78614000 1 2.30294000 1 -0.21644000
 C -1.88108000 1 1.57657000 1 -0.22813000
   ATOM   CHEMICAL          X               Y               Z
  NUMBER   SYMBOL      (ANGSTROMS)     (ANGSTROMS)     (ANGSTROMS)
 
     1       C         -1.56446000  *   0.24042000  *  -0.37248000   
     2       C         -0.19095000  *   0.18785000  *  -0.45090000   
     3       C          0.24269000  *   1.49487000  *  -0.34650000   
     4       C         -3.25873000  *   2.13330000  *  -0.09940000   
     5       H         -3.21443000  *   3.23805000  *   0.00000000   
     6       H         -3.75023000  *   1.70796000  *   0.80037000   
     7       H         -3.85264000  *   1.87345000  *  -1.00030000   
     8       C          1.66501000  *   1.94470000  *  -0.36809000   
     9       H          1.71618000  *   3.04884000  *  -0.26656000   
    10       H          2.13926000  *   1.64442000  *  -1.32528000   
    11       H          2.21829000  *   1.48108000  *   0.47489000   
    12       H         -2.25131000  *  -0.59449000  *  -0.41403000   
    13       H          0.42057000  *  -0.69770000  *  -0.56490000   
    14       H          0.66507000  *   0.23053000  *   2.30660000   
    15       H          1.19785000  *  -0.17211000  *   2.07117000   
 


          CARTESIAN COORDINATES 

    NO.       ATOM         X         Y         Z

     1         C       -1.5645    0.2404   -0.3725
     2         C       -0.1910    0.1878   -0.4509
     3         C        0.2427    1.4949   -0.3465
     4         C       -3.2587    2.1333   -0.0994
     5         H       -3.2144    3.2380    0.0000
     6         H       -3.7502    1.7080    0.8004
     7         H       -3.8526    1.8735   -1.0003
     8         C        1.6650    1.9447   -0.3681
     9         H        1.7162    3.0488   -0.2666
    10         H        2.1393    1.6444   -1.3253
    11         H        2.2183    1.4811    0.4749
    12         H       -2.2513   -0.5945   -0.4140
    13         H        0.4206   -0.6977   -0.5649
    14         H        0.6651    0.2305    2.3066
    15         H        1.1979   -0.1721    2.0712

 General Reference for PM6:
 "Optimization of Parameters for Semiempirical Methods V: Modification of NDDO Approximations
 and Application to 70 Elements", J. J. P. Stewart, J. Mol. Mod., 13, 1173-1213 (2007)
 URL: http://www.springerlink.com/content/ar33482301010477/fulltext.pdf

           Empirical Formula: C5 H10  =    15 atoms



      MOLECULAR POINT GROUP   :   C1  


 SINGLET STATE CALCULATION


      RHF CALCULATION, NO. OF DOUBLY OCCUPIED LEVELS = 15


          Geometry optimization using EF

          DIAGONAL MATRIX USED AS START HESSIAN

 CYCLE:     1 TIME:   0.004 TIME LEFT:  2.00D  GRAD.:   174.341 HEAT:  183.2024
 CYCLE:     2 TIME:   0.002 TIME LEFT:  2.00D  GRAD.:   206.958 HEAT:  180.7658
 CYCLE:     3 TIME:   0.001 TIME LEFT:  2.00D  GRAD.:    91.069 HEAT:  165.3466
 CYCLE:     4 TIME:   0.002 TIME LEFT:  2.00D  GRAD.:   145.464 HEAT:  153.9456
 CYCLE:     5 TIME:   0.001 TIME LEFT:  2.00D  GRAD.:   239.125 HEAT:  124.7761
 CYCLE:     6 TIME:   0.002 TIME LEFT:  2.00D  GRAD.:   319.626 HEAT:  91.88473
 CYCLE:     7 TIME:   0.004 TIME LEFT:  2.00D  GRAD.:   259.557 HEAT:  83.37273
 CYCLE:     8 TIME:   0.001 TIME LEFT:  2.00D  GRAD.:   146.286 HEAT:  64.82195
 CYCLE:     9 TIME:   0.003 TIME LEFT:  2.00D  GRAD.:   221.368 HEAT:  61.89132
 CYCLE:    10 TIME:   0.001 TIME LEFT:  2.00D  GRAD.:   177.436 HEAT:  59.92961
 CYCLE:    11 TIME:   0.002 TIME LEFT:  2.00D  GRAD.:   120.156 HEAT:  57.52760
 CYCLE:    12 TIME:   0.001 TIME LEFT:  2.00D  GRAD.:    74.427 HEAT:  53.27886
 CYCLE:    13 TIME:   0.002 TIME LEFT:  2.00D  GRAD.:    45.298 HEAT:  52.45307
 CYCLE:    14 TIME:   0.001 TIME LEFT:  2.00D  GRAD.:    29.010 HEAT:  51.43319
 CYCLE:    15 TIME:   0.002 TIME LEFT:  2.00D  GRAD.:    24.574 HEAT:  50.69995
 CYCLE:    16 TIME:   0.002 TIME LEFT:  2.00D  GRAD.:    22.708 HEAT:  49.46514
 CYCLE:    17 TIME:   0.001 TIME LEFT:  2.00D  GRAD.:    21.838 HEAT:  48.71710
 CYCLE:    18 TIME:   0.002 TIME LEFT:  2.00D  GRAD.:    18.260 HEAT:  48.40163
 CYCLE:    19 TIME:   0.001 TIME LEFT:  2.00D  GRAD.:    15.606 HEAT:  48.02308
 CYCLE:    20 TIME:   0.002 TIME LEFT:  2.00D  GRAD.:    14.955 HEAT:  47.55695
