[Molden Format]
[Geometries] (XYZ)
9

C       -0.856168      -0.327977      -0.086057
C        0.409857       0.522060      -0.155243
H       -1.748626       0.267292      -0.313014
H       -0.985553      -0.758196       0.916008
H       -0.797207      -1.155954      -0.800659
O        1.590577      -0.242238       0.074599
H        0.345463       1.362472       0.555168
H        0.523394       0.948984      -1.157208
H        1.518264      -0.616444       0.966406
9

C       -0.812740      -0.493817      -0.157274
C        0.271911       0.565551       0.016631
H       -1.763184      -0.008859      -0.451112
H       -0.979842      -1.024058       0.782876
H       -0.540254      -1.226607      -0.892495
O        1.593506       0.101229       0.109595
H        0.013338       1.270846       0.812714
H        0.754059       0.996678      -0.806144
H        1.773153      -0.424904       0.927054
9

C       -0.799129      -0.524290      -0.157900
C        0.181068       0.573359       0.171339
H       -1.753887      -0.096178      -0.520065
H       -1.043065      -1.165092       0.715424
H       -0.392702      -1.157725      -0.949505
O        1.573016       0.222139       0.076944
H       -0.031532       1.212109       1.030521
H        0.860219       0.972722      -0.570040
H        1.917636      -0.418091       0.761932
9

C       -0.834860      -0.504629      -0.090647
C        0.189277       0.588154       0.153311
H       -1.752481      -0.071070      -0.464789
H       -1.085971      -1.100591       0.822373
H       -0.425946      -1.280376      -0.951369
O        1.605747       0.188263       0.081677
H        0.010587       1.268436       0.966428
H        0.959919       0.883347      -0.588864
H        1.953983      -0.415603       0.790419
9

C       -0.841228      -0.447280      -0.068089
C        0.210325       0.596804       0.151540
H       -1.780198      -0.032201      -0.409284
H       -1.054315      -1.046279       0.844577
H       -0.471121      -1.248742      -0.928470
O        1.614018       0.148409       0.081814
H        0.047621       1.223014       1.019921
H        0.995205       0.886093      -0.562868
H        1.921216      -0.488679       0.770180
9

C       -0.841650      -0.458269      -0.004027
C        0.209702       0.603096       0.125096
H       -1.793570      -0.056689      -0.309930
H       -1.019859      -1.010952       0.958919
H       -0.517092      -1.288974      -0.849173
O        1.620211       0.157665       0.049144
H        0.067323       1.281819       0.955453
H        0.980850       0.837735      -0.627412
H        1.956184      -0.435965       0.777187
9

C       -0.830325      -0.476381       0.047200
C        0.192991       0.607837       0.167447
H       -1.803862      -0.059281      -0.228173
H       -0.977781      -1.050668       0.968501
H       -0.530351      -1.235265      -0.830857
O        1.619285       0.173951       0.014067
H        0.084302       1.283645       1.018258
H        0.945330       0.853208      -0.619011
H        1.991113      -0.419116       0.714600
9

C       -0.681272      -0.602140       0.182442
C        0.334305       0.537356       0.147909
H       -1.707419      -0.218052       0.125285
H       -0.591132      -1.181485       1.111090
H       -0.516341      -1.281952      -0.660482
O        1.681591       0.075932       0.149940
H        0.154867       1.230328       0.987047
H        0.229602       1.115031      -0.777336
H        1.817955      -0.417433       0.973763
[GEOCONV]
energy
0.0
26.82812941914017
72.26322089361202
88.18054179161845
88.72638088166423
89.63110769371269
88.22209342516726
-0.03415272895654198
max-force
0.0
0.006679672983157344
0.004273844974056173
0.009203493236134527
0.005950970548094087
0.007684098252591286
0.0057736981264309845
0.0003333507860798191
max-step
1000.0
1000.0
1000.0
1000.0
1000.0
1000.0
1000.0
1000.0
