[Molden Format]
[Geometries] (XYZ)
9

C        0.512566      -0.068260       0.881221
C       -0.003156       0.080815      -0.540035
H        1.599991       0.062413       0.912123
H        0.255418       1.078725      -0.930143
H        0.473589      -0.668414      -1.193016
O       -1.418235      -0.099863      -0.516397
H       -1.738788      -0.003692      -1.425779
H        0.051357       0.678146       1.536477
H        0.267259      -1.059871       1.275548
9

C        0.479702       0.098199       0.732942
C       -0.143283      -0.002767      -0.745831
H        1.506060       0.455525       0.836864
H       -0.147620       0.963830      -1.280840
H        0.317991      -0.776679      -1.402268
O       -1.344008      -0.356204      -0.056990
H       -1.736727      -0.285028      -0.938515
H       -0.155206       0.767678       1.299019
H        0.407772      -0.908443       1.169838
9

C        0.308961       0.146011       0.670068
C       -0.297713      -0.123523      -0.712836
H        1.368908       0.432246       0.598374
H       -0.247337       0.824985      -1.267267
H        0.238964      -0.944695      -1.210015
O       -1.739735      -0.502261       0.013612
H       -1.262087      -0.303420      -1.219836
H       -0.247636       0.964209       1.140898
H        0.206942      -0.761836       1.272666
9

C       -0.005919       0.209509       0.379927
C       -0.569098      -0.078280      -0.930453
H        1.073142       0.129200       0.508595
H       -0.502211       0.696637      -1.700200
H       -0.224209      -1.041322      -1.343451
O       -0.747632      -0.532995       1.391297
H       -1.617052      -0.247569      -0.625941
H       -0.248648       1.253048       0.627304
H       -0.608703      -1.481210       1.254894
9

C        0.141718       0.247856       0.614377
C       -0.397285      -0.245543      -1.632262
H        1.143058      -0.023286       0.925998
H       -0.205143       0.545081      -2.331956
H        0.024672      -1.210649      -1.855565
O       -0.922523      -0.436952       1.054874
H       -1.080503      -0.284450      -0.866329
H       -0.043541       1.305682       0.628554
H       -0.711110      -1.397903       1.120157
9

C        0.787702       0.518197       1.330471
C       -0.148459      -0.333688      -1.673609
H        1.466385      -0.175529       1.806377
H        0.016832       0.422647      -2.431195
H       -0.104497      -1.372941      -2.017449
O       -0.506552       0.240114       1.062358
H       -0.176593      -0.172759      -0.634001
H        1.076027       1.558487       1.201897
H       -0.756872      -0.609207       1.438463
9

C        0.872194       0.653829       1.095268
C        0.257149      -0.161975      -1.408840
H        1.451037      -0.104120       1.649316
H        0.433474       0.653707      -2.093962
H        0.479012      -1.174251      -1.768807
O       -0.501802       0.576416       1.182528
H        0.307292       0.065643      -0.359797
H        1.217602       1.672963       1.085929
H       -0.764714      -0.365433       1.205971
9

C        0.768735       0.869741       1.198263
C        0.336535      -0.260599      -1.172213
H        1.383961       0.158164       1.743091
H        0.461660       0.445398      -1.996095
H        0.714428      -1.261885      -1.382719
O       -0.607077       0.719979       1.213755
H        0.409910       0.134030      -0.153142
H        1.068445       1.896488       1.092976
H       -0.803211      -0.236681       1.371978
9

C        0.660950       0.883253       1.312257
C        0.394154      -0.347863      -0.985456
H        1.308058       0.295620       1.956725
H        0.631661       0.302152      -1.863402
H        0.914145      -1.300696      -1.063301
O       -0.685790       0.719261       1.409275
H        0.553502       0.208764       0.032614
H        0.937904       1.927098       1.104280
H       -0.901097      -0.218043       1.570725
9

C        1.003567       0.976625       1.520104
C        0.242746      -0.175362      -0.717714
H        1.532175       0.285264       2.172075
H        0.242092       0.262239      -1.745247
H        0.454291      -1.280655      -0.892929
O       -0.256802       0.767401       1.146599
H        1.153177       0.241207      -0.164031
H        1.340736       1.981985       1.311432
H       -0.605920      -0.081239       1.471273
9

C        1.655506       0.768746       1.724415
C        0.661310       0.003572      -0.236847
H        1.929921       0.039363       2.477517
H        0.540332       0.625327      -1.134262
H        0.565947      -1.071626      -0.350530
O        0.319503       0.583107       1.157023
H        2.067428       0.395636       0.678833
H        2.018013       1.792435       1.821093
H       -0.126590      -0.142373       1.629578
9

C        2.019116       0.802244       1.928545
C        0.561921       0.168886      -0.310288
H        2.293473       0.068485       2.702749
H        0.463811       0.938640      -1.052966
H        0.530404      -0.882904      -0.523726
O        0.252609       0.596141       0.916911
H        2.352748       0.526993       0.915583
H        2.270673       1.822101       2.207394
H        0.305928      -0.091275       1.601431
9

C        2.117480       0.684042       2.312105
C        0.580206       0.581093      -1.271178
H        2.305978      -0.101868       3.048804
H        1.015524       1.448295      -1.810124
H        0.947969      -0.414802      -1.597573
O       -0.237626       0.707918      -0.393047
H        2.910755       0.673725       1.559430
H        2.113418       1.655360       2.815159
H        1.147976       0.519463       1.837195
[GEOCONV]
energy
0.0
37.71154099209525
106.54096426462638
7.206401324394392
81.19218903043657
124.71782345640531
116.63426806617645
118.60767982978723
117.43905978831754
128.36859693021688
140.62592579096963
119.400523481032
8.998478768131463
max-force
0.0
0.008681540845782766
0.009919883936958099
0.00716368491898185
0.00952796430717259
0.007710233668489121
0.008251612426011147
0.008874744946526262
0.008875836633506114
0.008619352738062329
0.009703018877809111
0.004241091074976073
0.0003598175115816885
max-step
1000.0
1000.0
1000.0
1000.0
1000.0
1000.0
1000.0
1000.0
1000.0
1000.0
1000.0
1000.0
1000.0
