[Molden Format]
[Geometries] (XYZ)
9

C       -0.856168      -0.327977      -0.086057
C        0.409857       0.522060      -0.155243
H       -1.748626       0.267292      -0.313014
H       -0.985553      -0.758196       0.916008
H       -0.797207      -1.155954      -0.800659
O        1.590577      -0.242238       0.074599
H        0.345463       1.362472       0.555168
H        0.523394       0.948984      -1.157208
H        1.518264      -0.616444       0.966406
9

C       -0.867519      -0.346953      -0.074250
C        0.392088       0.513413      -0.128623
H       -1.758528       0.249371      -0.318787
H       -1.008233      -0.766651       0.928734
H       -0.797034      -1.178714      -0.772773
O        1.589100      -0.225848       0.046966
H        0.328438       1.348597       0.584283
H        0.628501       0.885994      -1.110633
H        1.586869      -0.626595       0.936386
9

C       -0.876019      -0.365054      -0.061391
C        0.375220       0.505042      -0.100317
H       -1.765780       0.226825      -0.331512
H       -1.036669      -0.773387       0.943592
H       -0.787609      -1.202154      -0.745731
O        1.590312      -0.211082       0.019421
H        0.319401       1.337846       0.612622
H        0.723175       0.817355      -1.057288
H        1.655805      -0.641016       0.898955
9

C       -0.841758      -0.384395       0.049185
C        0.398002       0.495054       0.024890
H       -1.731696       0.194992      -0.252968
H       -1.028864      -0.781587       1.056278
H       -0.728800      -1.229384      -0.623274
O        1.632317      -0.202148       0.088429
H        0.356763       1.327023       0.737171
H        0.848306       0.741523      -0.903855
H        1.759828      -0.663387       0.950712
9

C       -0.840721      -0.420287       0.138616
C        0.374314       0.475567       0.092849
H       -1.741212       0.143923      -0.154371
H       -1.021765      -0.835291       1.125479
H       -0.724539      -1.272895      -0.600060
O        1.638626      -0.259227       0.173661
H        0.369346       1.311521       0.810115
H        0.847296       0.684970      -0.864295
H        1.735045      -0.705461       1.037330
9

C       -0.844440      -0.432992       0.172132
C        0.387143       0.449232       0.120484
H       -1.743024       0.139538      -0.097288
H       -1.007876      -0.854331       1.166878
H       -0.746330      -1.279774      -0.561536
O        1.624383      -0.294082       0.247410
H        0.365454       1.285574       0.836211
H        0.755243       0.730910      -0.860975
H        1.668710      -0.718964       1.124368
9

C       -0.844967      -0.438978       0.194479
C        0.404961       0.426737       0.135520
H       -1.739627       0.144843      -0.053551
H       -0.992213      -0.864541       1.195641
H       -0.766329      -1.278271      -0.531589
O        1.614185      -0.324374       0.312353
H        0.361157       1.264578       0.848718
H        0.653479       0.784073      -0.861351
H        1.604621      -0.724368       1.199612
9

C       -0.681272      -0.602140       0.182442
C        0.334305       0.537356       0.147909
H       -1.707419      -0.218052       0.125285
H       -0.591132      -1.181485       1.111090
H       -0.516341      -1.281952      -0.660482
O        1.681591       0.075932       0.149940
H        0.154867       1.230328       0.987047
H        0.229602       1.115031      -0.777336
H        1.817955      -0.417433       0.973763
[GEOCONV]
energy
0.0
2.2770007127546705
9.569346537260571
21.753056792877032
21.41427262639627
10.023755219735904
2.5354786232783226
-0.03415272895654198
max-force
0.0
0.006679672983157344
0.004273844974056173
0.009203493236134527
0.005950970548094087
0.007684098252591286
0.0057736981264309845
0.0003333507860798191
max-step
1000.0
1000.0
1000.0
1000.0
1000.0
1000.0
1000.0
1000.0
