[Molden Format]
[Geometries] (XYZ)
9

C        0.512566      -0.068260       0.881221
C       -0.003156       0.080815      -0.540035
H        1.599991       0.062413       0.912123
H        0.255418       1.078725      -0.930143
H        0.473589      -0.668414      -1.193016
O       -1.418235      -0.099863      -0.516397
H       -1.738788      -0.003692      -1.425779
H        0.051357       0.678146       1.536477
H        0.267259      -1.059871       1.275548
9

C        0.396399       0.000719       0.683129
C       -0.030934       0.124628      -0.784380
H        1.476694       0.101874       0.837692
H        0.198220       1.144061      -1.128597
H        0.415856      -0.644999      -1.437897
O       -1.472050      -0.262227      -0.096386
H       -1.252689       0.144781      -1.318921
H       -0.105135       0.784405       1.254030
H        0.061199      -1.108389       1.036757
9

C        0.341518       0.160132       0.584939
C        0.016450       0.289281      -1.088377
H        1.405404       0.060269       0.812414
H        0.259996       1.301952      -1.414794
H        0.480054      -0.503285      -1.685621
O       -1.317601      -0.511801       0.309824
H       -0.968116       0.174718      -1.276767
H       -0.049735       1.063064       1.056474
H       -0.235810      -1.277756       0.850398
9

C        0.170612       0.225028       0.644081
C       -0.024458       0.428628      -1.477931
H        1.146246      -0.073593       1.013802
H        0.181978       1.416711      -1.863959
H        0.475526      -0.381541      -2.001704
O       -0.873701      -0.543165       0.775782
H       -0.866034       0.039130      -1.148478
H       -0.106331       1.219876       0.970148
H       -0.648827      -1.508080       0.594135
9

C        0.240137       0.197090       0.988671
C       -0.021467       0.424759      -1.678569
H        1.154265      -0.218326       1.394052
H        0.055372       1.449266      -2.003924
H        0.487102      -0.319334      -2.282570
O       -0.794143      -0.455417       0.821050
H       -0.420805      -0.140586      -1.005979
H        0.025676       1.227496       1.228169
H       -0.652666      -1.480871       0.720816
9

C        0.286569       0.238471       1.348343
C       -0.003323       0.408927      -1.602008
H        1.185792      -0.235905       1.721076
H       -0.049198       1.426226      -1.963888
H        0.519899      -0.309880      -2.233376
O       -0.774325      -0.408297       0.948094
H       -0.208815       0.043417      -0.736703
H        0.088826       1.263998       1.633564
H       -0.621217      -1.384239       0.876512
9

C        0.355589       0.257669       1.502828
C        0.079506       0.335930      -1.313330
H        1.252063      -0.286012       1.796513
H       -0.113528       1.340548      -1.679217
H        0.709190      -0.285612      -1.955261
O       -0.771661      -0.404514       1.235101
H        0.037795       0.066242      -0.306894
H        0.195701       1.265141       1.856601
H       -0.608717      -1.335144       1.012434
9

C        0.470876       0.244508       1.584707
C        0.176005       0.259754      -1.051870
H        1.372639      -0.318749       1.810684
H       -0.064760       1.251716      -1.463297
H        0.888726      -0.294189      -1.668987
O       -0.715762      -0.425410       1.418326
H        0.323458       0.199951       0.027637
H        0.332049       1.243414       1.977699
H       -0.530123      -1.337531       1.113674
9

C        0.593409       0.271149       1.797914
C        0.263321       0.284832      -0.798414
H        1.480190      -0.293587       2.071989
H        0.033737       1.281900      -1.228575
H        0.964304      -0.273529      -1.433929
O       -0.588972      -0.405392       1.576226
H        0.561998       0.277665       0.258590
H        0.443843       1.284702       2.167651
H       -0.417751      -1.308484       1.329127
9

C        0.775837       0.399970       1.955480
C        0.273616       0.303782      -0.520192
H        1.533414      -0.279307       2.337355
H       -0.103290       1.182672      -1.074015
H        0.875008      -0.388507      -1.130341
O       -0.387321      -0.187446       1.224269
H        1.178395       0.779188       0.633412
H        0.555882       1.336464       2.464704
H       -0.220595      -1.079925       1.179745
9

C        1.123441       0.643601       2.165233
C        0.275972       0.395832      -0.591535
H        1.766828      -0.079695       2.672008
H       -0.119300       1.292955      -1.077057
H        0.886294      -0.316159      -1.146952
O       -0.368128      -0.041564       0.642269
H        1.677926       1.103998       1.211265
H        0.777020       1.467374       2.789097
H        0.161251      -0.544472       1.340511
9

C        1.415478       0.934901       2.315272
C        0.248462       0.601620      -0.878353
H        2.036986       0.236161       2.887109
H       -0.039587       1.569770      -1.304827
H        0.962972      -0.046787      -1.398846
O       -0.416203       0.163534       0.131060
H        2.000920       1.421225       1.493897
H        0.979463       1.694290       2.966300
H        0.531017       0.053924       1.597787
9

C        2.117480       0.684042       2.312105
C        0.580206       0.581093      -1.271178
H        2.305978      -0.101868       3.048804
H        1.015524       1.448295      -1.810124
H        0.947969      -0.414802      -1.597573
O       -0.237626       0.707918      -0.393047
H        2.910755       0.673725       1.559430
H        2.113418       1.655360       2.815159
H        1.147976       0.519463       1.837195
[GEOCONV]
energy
0.0
109.14768802252365
162.28251725550217
68.12738438748056
129.02907426706224
126.07946464521228
117.3154118364182
119.03409349548747
122.26920744862582
171.3381338774343
126.06168251328927
48.28541326173581
8.998478768131463
max-force
0.0
0.008681540845782766
0.009919883936958099
0.00716368491898185
0.00952796430717259
0.007710233668489121
0.008251612426011147
0.008874744946526262
0.008875836633506114
0.008619352738062329
0.009703018877809111
0.004241091074976073
0.0003598175115816885
max-step
1000.0
1000.0
1000.0
1000.0
1000.0
1000.0
1000.0
1000.0
1000.0
1000.0
1000.0
1000.0
1000.0
