[Molden Format]
[Geometries] (XYZ)
9

C       -0.857225      -0.328381      -0.086868
C        0.408925       0.521162      -0.156506
H       -1.749924       0.267290      -0.311865
H       -0.984972      -0.759747       0.914865
H       -0.799450      -1.155602      -0.802444
O        1.589322      -0.243401       0.073288
H        0.348206       1.357987       0.557641
H        0.525599       0.949111      -1.157155
H        1.519519      -0.608418       0.969043
9

C       -0.828966      -0.341440      -0.088701
C        0.446203       0.490239      -0.175745
H       -1.715638       0.288114      -0.224813
H       -0.911260      -0.830730       0.895574
H       -0.841762      -1.119630      -0.845526
O        1.618221      -0.269653       0.105852
H        0.478086       1.258403       0.598293
H        0.538648       0.932854      -1.165993
H        1.443129      -0.396453       1.042585
9

C       -0.802103      -0.335732      -0.086444
C        0.486402       0.464484      -0.171516
H       -1.675798       0.323683      -0.172544
H       -0.873431      -0.862509       0.880920
H       -0.844379      -1.089693      -0.870855
O        1.670351      -0.304928       0.138219
H        0.608964       1.165183       0.650322
H        0.572625       0.942867      -1.149723
H        1.444361      -0.155256       1.063380
9

C       -0.766434      -0.370690      -0.067248
C        0.547032       0.396015      -0.155293
H       -1.623376       0.311934      -0.121050
H       -0.836831      -0.922073       0.880046
H       -0.827871      -1.096853      -0.878616
O        1.715570      -0.363988       0.179214
H        0.745102       1.038729       0.711578
H        0.634281       0.920464      -1.112453
H        1.439552       0.040979       1.044466
9

C       -0.778370      -0.281391      -0.081291
C        0.502540       0.506040      -0.145232
H       -1.650560       0.373706      -0.202154
H       -0.877954      -0.803433       0.875175
H       -0.793246      -1.028159      -0.882493
O        1.779846      -0.367915       0.196641
H        0.729610       1.185395       0.731029
H        0.665525       1.051746      -1.076223
H        1.728440       0.148187       1.023356
9

C       -0.749755      -0.224342      -0.074707
C        0.533054       0.576871      -0.111260
H       -1.618571       0.422457      -0.248099
H       -0.881991      -0.718457       0.893963
H       -0.733410      -0.996674      -0.851488
O        1.747938      -0.285796       0.154885
H        0.629568       1.319169       0.721593
H        0.677314       1.102486      -1.060612
H        1.896886       0.064255       1.040161
9

C       -0.775040       0.123152      -0.079995
C        0.750097       0.133642      -0.053983
H       -1.169044       1.136692      -0.221703
H       -1.182703      -0.275224       0.855986
H       -1.133751      -0.505230      -0.901332
O        1.278423      -1.191187       0.030919
H        1.107615       0.756077       0.779667
H        1.132538       0.586352      -0.978964
H        1.639893      -1.315921       0.919320
[GEOCONV]
energy
0.0
4.528939076772076
16.173679975734558
39.46073916229943
25.632799936414813
7.822548748314148
1.3080769035586854
max-force
0.0
0.006132280250252804
0.004170785380439856
0.009684576220107589
0.00944075538896058
0.007742955217761624
0.000490185502832436
max-step
1000.0
1000.0
1000.0
1000.0
1000.0
1000.0
1000.0
