[Molden Format]
[Geometries] (XYZ)
9

C       -0.857225      -0.328381      -0.086868
C        0.408925       0.521162      -0.156506
H       -1.749924       0.267290      -0.311865
H       -0.984972      -0.759747       0.914865
H       -0.799450      -1.155602      -0.802444
O        1.589322      -0.243401       0.073288
H        0.348206       1.357987       0.557641
H        0.525599       0.949111      -1.157155
H        1.519519      -0.608418       0.969043
9

C       -0.855009      -0.273992       0.036668
C        0.483182       0.349656      -0.341151
H       -1.657772       0.468642      -0.028603
H       -0.831122      -0.654558       1.073771
H       -1.106634      -1.101635      -0.608630
O        1.585938      -0.508189      -0.058727
H        0.766555       1.151627       0.330348
H        0.469964       0.651226      -1.382980
H        1.490380      -0.316897       0.879281
9

C       -0.878462      -0.176108       0.105812
C        0.508287       0.196434      -0.370913
H       -1.548922       0.695967       0.073007
H       -0.850961      -0.536934       1.149303
H       -1.287216      -0.988610      -0.504085
O        1.535159      -0.816603      -0.111730
H        1.047581       0.879649       0.273867
H        0.481146       0.514776      -1.421569
H        1.581605      -0.242042       0.683903
9

C       -0.862825      -0.210007       0.107858
C        0.558672       0.112487      -0.355921
H       -1.485625       0.688368       0.097489
H       -0.866790      -0.604389       1.126536
H       -1.296926      -0.967887      -0.548706
O        1.520048      -0.844701      -0.091193
H        1.142176       0.723394       0.349544
H        0.558350       0.502006      -1.381956
H        1.544101      -0.099589       0.620780
9

C       -0.870208      -0.218711       0.110605
C        0.559978       0.118034      -0.346152
H       -1.528600       0.660241       0.190121
H       -0.858421      -0.728014       1.067456
H       -1.266268      -0.885680      -0.646294
O        1.583542      -0.985568      -0.082272
H        1.216020       0.623732       0.417470
H        0.649213       0.609358      -1.316466
H        1.542600      -0.092550       0.579931
9

C       -0.850620      -0.067870       0.147591
C        0.535324       0.065138      -0.362836
H       -1.367015       0.900537       0.132332
H       -0.868144      -0.438049       1.177456
H       -1.416299      -0.770441      -0.478292
O        1.553003      -1.282382      -0.014378
H        1.348032       0.475775       0.291939
H        0.674565       0.385694      -1.390657
H        1.733243      -0.468010       0.513666
9

C       -0.775040       0.123152      -0.079995
C        0.750097       0.133642      -0.053983
H       -1.169044       1.136692      -0.221703
H       -1.182703      -0.275224       0.855986
H       -1.133751      -0.505230      -0.901332
O        1.278423      -1.191187       0.030919
H        1.107615       0.756077       0.779667
H        1.132538       0.586352      -0.978964
H        1.639893      -1.315921       0.919320
[GEOCONV]
energy
0.0
12.35201208163926
34.90384991247265
77.72085585215245
101.32524769029988
69.35897741744702
1.3080769035586854
max-force
0.0
0.006132280250252804
0.004170785380439856
0.009684576220107589
0.00944075538896058
0.007742955217761624
0.000490185502832436
max-step
1000.0
1000.0
1000.0
1000.0
1000.0
1000.0
1000.0
