[Molden Format]
[Geometries] (XYZ)
9

C       -0.856168      -0.327977      -0.086057
C        0.409857       0.522060      -0.155243
H       -1.748626       0.267292      -0.313014
H       -0.985553      -0.758196       0.916008
H       -0.797207      -1.155954      -0.800659
O        1.590577      -0.242238       0.074599
H        0.345463       1.362472       0.555168
H        0.523394       0.948984      -1.157208
H        1.518264      -0.616444       0.966406
9

C       -0.846772      -0.351418      -0.041780
C        0.421634       0.491550      -0.132835
H       -1.736955       0.257070      -0.240004
H       -0.960433      -0.784011       0.960998
H       -0.817094      -1.174386      -0.764800
O        1.605253      -0.260563       0.117175
H        0.352177       1.359785       0.543811
H        0.541874       0.882143      -1.148442
H        1.530911      -0.626559       1.012398
9

C       -0.806922      -0.406670       0.037452
C        0.454269       0.442013      -0.101997
H       -1.704979       0.202655      -0.118253
H       -0.875850      -0.846491       1.041410
H       -0.810404      -1.223631      -0.692574
O        1.651348      -0.292375       0.145362
H        0.392100       1.328954       0.549615
H        0.557448       0.798791      -1.131437
H        1.592464      -0.639632       1.048861
9

C       -0.808260      -0.420106       0.116035
C        0.441239       0.446024      -0.038751
H       -1.718401       0.168901      -0.047554
H       -0.865457      -0.845191       1.126875
H       -0.791236      -1.250391      -0.598051
O        1.646914      -0.264571       0.215955
H        0.364918       1.340055       0.602910
H        0.526497       0.798344      -1.070727
H        1.589583      -0.615593       1.117972
9

C       -0.737397      -0.446080       0.238462
C        0.529514       0.393280       0.095459
H       -1.632035       0.155491       0.035723
H       -0.831898      -0.846171       1.256901
H       -0.720441      -1.289474      -0.459411
O        1.717091      -0.352025       0.345378
H        0.475338       1.281123       0.746856
H        0.631478       0.748923      -0.934660
H        1.651685      -0.709064       1.244678
9

C       -0.810499      -0.379570       0.098417
C        0.459381       0.458940      -0.013823
H       -1.702566       0.235930      -0.071198
H       -0.902247      -0.818815       1.100162
H       -0.804245      -1.194177      -0.633667
O        1.641589      -0.295512       0.238965
H        0.397464       1.337770       0.649711
H        0.575490       0.822838      -1.039533
H        1.562937      -0.670593       1.129951
9

C       -0.815310      -0.385395       0.146860
C        0.454360       0.452575       0.033627
H       -1.706925       0.222587      -0.048842
H       -0.918201      -0.805690       1.155711
H       -0.793236      -1.215954      -0.566614
O        1.637922      -0.300891       0.276790
H        0.394015       1.328380       0.702118
H        0.562114       0.834147      -0.986901
H        1.573018      -0.663535       1.173833
9

C       -0.681272      -0.602140       0.182442
C        0.334305       0.537356       0.147909
H       -1.707419      -0.218052       0.125285
H       -0.591132      -1.181485       1.111090
H       -0.516341      -1.281952      -0.660482
O        1.681591       0.075932       0.149940
H        0.154867       1.230328       0.987047
H        0.229602       1.115031      -0.777336
H        1.817955      -0.417433       0.973763
[GEOCONV]
energy
0.0
0.012093678218661807
0.080431653681444
0.0629963462415617
0.01500470595783554
0.07835276436526328
0.007532456802437082
-0.03415272895654198
max-force
0.0
0.00030822171979003835
0.00045572343204397075
0.000450706211849195
0.00020867780114168524
0.000380962085622163
0.0003623347801546238
0.0003333507860798191
max-step
1000.0
1000.0
1000.0
1000.0
1000.0
1000.0
1000.0
1000.0
