[Molden Format]
[Geometries] (XYZ)
9

C       -0.857225      -0.328381      -0.086868
C        0.408925       0.521162      -0.156506
H       -1.749924       0.267290      -0.311865
H       -0.984972      -0.759747       0.914865
H       -0.799450      -1.155602      -0.802444
O        1.589322      -0.243401       0.073288
H        0.348206       1.357987       0.557641
H        0.525599       0.949111      -1.157155
H        1.519519      -0.608418       0.969043
9

C       -0.844719      -0.270767      -0.077920
C        0.461493       0.519533      -0.132568
H       -1.700292       0.373185      -0.309880
H       -0.994330      -0.690805       0.924316
H       -0.815020      -1.099485      -0.794569
O        1.607714      -0.295474       0.093578
H        0.427020       1.353763       0.586068
H        0.587594       0.961016      -1.128482
H        1.648870      -0.486949       1.042637
9

C       -0.821191      -0.323281      -0.108328
C        0.463680       0.491009      -0.201759
H       -1.703502       0.292944      -0.331721
H       -0.947585      -0.728436       0.900057
H       -0.786642      -1.168619      -0.805129
O        1.617548      -0.308982       0.056630
H        0.421511       1.341206       0.490859
H        0.596214       0.895480      -1.211617
H        1.805612      -0.265743       1.006589
9

C       -0.868083      -0.304465      -0.118182
C        0.476370       0.413432      -0.095101
H       -1.678851       0.376264      -0.409044
H       -1.105284      -0.719563       0.867732
H       -0.841845      -1.129797      -0.836398
O        1.545106      -0.495729       0.174730
H        0.459240       1.237375       0.635182
H        0.696262       0.853373      -1.073212
H        1.702160      -0.495150       1.132947
9

C       -0.841730      -0.387302      -0.024841
C        0.484293       0.367266      -0.084213
H       -1.686567       0.285759      -0.212844
H       -0.978483      -0.839705       0.963661
H       -0.855882      -1.188492      -0.768761
O        1.593776      -0.510081       0.120488
H        0.497479       1.159473       0.677359
H        0.618695       0.841188      -1.061938
H        1.820196      -0.457668       1.059540
9

C       -0.773739      -0.314915      -0.064177
C        0.538230       0.461481      -0.112252
H       -1.628428       0.340634      -0.274185
H       -0.919508      -0.762962       0.925625
H       -0.763507      -1.121733      -0.800961
O        1.657953      -0.403575       0.091526
H        0.528216       1.249448       0.650836
H        0.665501       0.945185      -1.087916
H        1.953914      -0.287012       1.005137
9

C       -0.775040       0.123152      -0.079995
C        0.750097       0.133642      -0.053983
H       -1.169044       1.136692      -0.221703
H       -1.182703      -0.275224       0.855986
H       -1.133751      -0.505230      -0.901332
O        1.278423      -1.191187       0.030919
H        1.107615       0.756077       0.779667
H        1.132538       0.586352      -0.978964
H        1.639893      -1.315921       0.919320
[GEOCONV]
energy
0.0
0.20778516512655187
0.7448798817786155
0.8037749534851173
1.0351405993278604
1.1997885845048586
1.3080769035586854
max-force
0.0
0.0008746786649750427
0.0013291186921830656
0.0013679637369708561
0.0010245013765290997
0.001000882939926511
0.000490185502832436
max-step
1000.0
1000.0
1000.0
1000.0
1000.0
1000.0
1000.0
