[Molden Format]
[Geometries] (XYZ)
9

C        0.512566      -0.068260       0.881221
C       -0.003156       0.080815      -0.540035
H        1.599991       0.062413       0.912123
H        0.255418       1.078725      -0.930143
H        0.473589      -0.668414      -1.193016
O       -1.418235      -0.099863      -0.516397
H       -1.738788      -0.003692      -1.425779
H        0.051357       0.678146       1.536477
H        0.267259      -1.059871       1.275548
9

C        0.514672       0.052615       0.958692
C        0.009576       0.247512      -0.467474
H        1.561490      -0.272196       0.973419
H       -0.014176       1.316344      -0.732985
H        0.670998      -0.262769      -1.187994
O       -1.313472      -0.307906      -0.535013
H       -1.703352       0.030980      -1.355216
H        0.437441       0.959854       1.565667
H       -0.066271      -0.746205       1.433962
9

C        0.312901       0.187696       0.683428
C        0.028786       0.632858      -0.707393
H        1.018776      -0.612340       0.679984
H       -0.050068       1.722455      -0.742736
H        0.594550       0.079325      -1.450113
O       -1.433463      -0.371279      -0.483634
H       -1.363058       0.509920      -1.083102
H        0.635673       1.008623       1.390602
H       -0.581950      -0.276353       1.207796
9

C        0.316129       0.300840       0.535866
C        0.037792       0.753577      -0.900689
H        1.208848      -0.306067       0.604601
H       -0.079528       1.839501      -1.076201
H        0.646210       0.237173      -1.641743
O       -0.724259      -0.746745       0.457454
H       -1.077903       0.508798      -0.856057
H        0.339558       1.104265       1.268680
H       -0.985610      -0.926956       1.368485
9

C        0.278053       0.308620       0.483778
C       -0.114292       0.680538      -0.976752
H        1.284099      -0.113303       0.494756
H        0.403224       1.562501      -1.393335
H        0.238585      -0.225631      -1.538925
O       -0.723713      -0.684478       0.862126
H       -1.198912       0.944545      -0.890200
H        0.187108       1.193952       1.114266
H       -1.108162      -1.143187       0.063415
9

C        0.500554       0.227041       0.899136
C       -0.303776       0.518136      -1.247938
H        1.550785      -0.105922       0.712987
H       -0.048105       1.170785      -2.068956
H        0.419616      -0.249149      -1.035654
O       -0.349097      -0.545820       1.261353
H       -1.047308       0.798484      -0.521228
H        0.455873       1.310356       1.174876
H       -1.026659      -0.303464      -1.508721
9

C        0.751524       0.258189       1.111866
C       -0.358965       0.517769      -1.423738
H        1.716868      -0.155570       0.752077
H       -0.531709       1.232902      -2.236555
H        0.672833       0.199501      -1.386407
O       -0.163092      -0.463523       1.377090
H       -0.690908       0.995957      -0.503929
H        0.747914       1.352684       1.318337
H       -0.983961      -0.374335      -1.526936
9

C        0.831692       0.287281       1.317470
C       -0.154053       0.665493      -1.485791
H        1.807076      -0.055306       0.897530
H       -0.672555       1.251549      -2.249413
H        0.816080       0.346381      -1.861793
O       -0.157390      -0.403472       1.311030
H       -0.017534       1.278965      -0.589824
H        0.838299       1.295394       1.791722
H       -0.728509      -0.210690      -1.198135
9

C        0.852711       0.477439       1.225121
C        0.051231       0.660260      -1.435346
H        1.878504       0.109290       1.050798
H       -0.794557       1.340234      -1.629303
H        0.443555       0.325628      -2.399189
O       -0.094848      -0.275944       1.131186
H        0.715319       1.184536      -0.652136
H        0.710380       1.436216       1.758316
H       -0.279549      -0.269285      -0.893284
9

C        0.962121       0.590670       1.231051
C        0.314278       0.632346      -1.534238
H        1.828039       0.002779       1.575278
H       -0.471993       1.398422      -1.670181
H        0.518760       0.260561      -2.579817
O       -0.147250      -0.221739       0.798000
H        1.261827       1.139030       0.293352
H        0.627343       1.290613       1.981017
H        0.155084      -0.659972       0.012704
9

C        1.308135       0.764520       1.417248
C       -0.121192       0.670552      -1.032519
H        2.181229       0.178584       1.704593
H       -0.935396       1.376632      -1.149557
H        0.225235       0.111099      -1.905582
O       -0.211674       0.056204       0.185172
H        1.454107       1.380953       0.542263
H        0.937500       1.405210       2.219685
H        0.391228      -0.690893       0.275025
9

C        1.650764       0.653346       1.792346
C        0.137533       0.696996      -1.166948
H        2.459167       0.057418       2.228436
H       -0.450158       1.601210      -1.391796
H        0.748860       0.199733      -1.960219
O       -0.138388       0.132570      -0.138898
H        2.016644       1.318764       0.998850
H        1.161230       1.246429       2.562529
H        1.049866      -0.097400       1.248961
9

C        2.117480       0.684042       2.312105
C        0.580206       0.581093      -1.271178
H        2.305978      -0.101868       3.048804
H        1.015524       1.448295      -1.810124
H        0.947969      -0.414802      -1.597573
O       -0.237626       0.707918      -0.393047
H        2.910755       0.673725       1.559430
H        2.113418       1.655360       2.815159
H        1.147976       0.519463       1.837195
[GEOCONV]
energy
0.0
2.8933391110185767
90.76073383021867
28.193276810838142
10.325920152201434
49.312161831752746
15.744346162697184
13.047360045879032
26.18285297593684
121.37939570470189
119.98065481797676
20.41903807099152
8.998478768131463
max-force
0.0
0.0014974944281679946
0.01618744949874303
0.009899704994481893
0.015709087587544107
0.009759673237953988
0.00941997426169538
0.003998266546787413
0.014130157555573515
0.019856146330254926
0.008306802609025441
0.006495665854031202
0.0003598175115816885
max-step
1000.0
1000.0
1000.0
1000.0
1000.0
1000.0
1000.0
1000.0
1000.0
1000.0
1000.0
1000.0
1000.0
