                  Welcome to Q-Chem
     A Quantum Leap Into The Future Of Chemistry


 Q-Chem 5.2 (devel), Q-Chem, Inc., Pleasanton, CA (2019)

 Yihan Shao,  Zhengting Gan,  E. Epifanovsky,  A. T. B. Gilbert,  M. Wormit,  
 J. Kussmann,  A. W. Lange,  A. Behn,  Jia Deng,  Xintian Feng,  D. Ghosh,  
 M. Goldey,  P. R. Horn,  L. D. Jacobson,  I. Kaliman,  T. Kus,  A. Landau,  
 Jie Liu,  E. I. Proynov,  R. M. Richard,  R. P. Steele,  E. J. Sundstrom,  
 H. L. Woodcock III,  P. M. Zimmerman,  D. Zuev,  B. Albrecht,  E. Alguire,  
 S. A. Baeppler,  D. Barton,  Z. Benda,  Y. A. Bernard,  E. J. Berquist,  
 K. B. Bravaya,  H. Burton,  D. Casanova,  Chun-Min Chang,  Yunqing Chen,  
 A. Chien,  K. D. Closser,  M. P. Coons,  S. Coriani,  S. Dasgupta,  
 A. L. Dempwolff,  M. Diedenhofen,  Hainam Do,  R. G. Edgar,  Po-Tung Fang,  
 S. Faraji,  S. Fatehi,  Qingguo Feng,  K. D. Fenk,  J. Fosso-Tande,  
 J. Gayvert,  Qinghui Ge,  A. Ghysels,  G. Gidofalvi,  J. Gomes,  
 J. Gonthier,  A. Gunina,  D. Hait,  M. W. D. Hanson-Heine,  
 P. H. P. Harbach,  A. W. Hauser,  M. F. Herbst,  J. E. Herr,  
 E. G. Hohenstein,  Z. C. Holden,  Kerwin Hui,  B. C. Huynh,  T.-C. Jagau,  
 Hyunjun Ji,  B. Kaduk,  K. Khistyaev,  Jaehoon Kim,  P. Klunzinger,  K. Koh,  
 D. Kosenkov,  L. Koulias,  T. Kowalczyk,  C. M. Krauter,  A. Kunitsa,  
 Ka Un Lao,  A. Laurent,  K. V. Lawler,  Joonho Lee,  D. Lefrancois,  
 S. Lehtola,  D. S. Levine,  Yi-Pei Li,  You-Sheng Lin,  Fenglai Liu,  
 E. Livshits,  A. Luenser,  P. Manohar,  E. Mansoor,  S. F. Manzer,  
 Shan-Ping Mao,  Yuezhi Mao,  N. Mardirossian,  A. V. Marenich,  
 T. Markovich,  L. A. Martinez-Martinez,  S. A. Maurer,  N. J. Mayhall,  
 S. C. McKenzie,  J.-M. Mewes,  P. Morgante,  A. F. Morrison,  
 J. W. Mullinax,  K. Nanda,  T. S. Nguyen-Beck,  R. Olivares-Amaya,  
 J. A. Parkhill,  Zheng Pei,  T. M. Perrine,  F. Plasser,  P. Pokhilko,  
 S. Prager,  A. Prociuk,  E. Ramos,  D. R. Rehn,  F. Rob,  M. Scheurer,  
 M. Schneider,  N. Sergueev,  S. M. Sharada,  S. Sharma,  D. W. Small,  
 T. Stauch,  T. Stein,  Yu-Chuan Su,  A. J. W. Thom,  A. Tkatchenko,  
 T. Tsuchimochi,  N. M. Tubman,  L. Vogt,  M. L. Vidal,  O. Vydrov,  
 M. A. Watson,  J. Wenzel,  M. de Wergifosse,  T. A. Wesolowski,  A. White,  
 J. Witte,  A. Yamada,  Jun Yang,  K. Yao,  S. Yeganeh,  S. R. Yost,  
 Zhi-Qiang You,  A. Zech,  Igor Ying Zhang,  Xing Zhang,  Yan Zhao,  
 Ying Zhu,  B. R. Brooks,  G. K. L. Chan,  C. J. Cramer,  M. S. Gordon,  
 W. J. Hehre,  A. Klamt,  M. W. Schmidt,  C. D. Sherrill,  D. G. Truhlar,  
 A. Aspuru-Guzik,  R. Baer,  A. T. Bell,  N. A. Besley,  Jeng-Da Chai,  
 A. E. DePrince, III,  R. A. DiStasio Jr.,  A. Dreuw,  B. D. Dunietz,  
 T. R. Furlani,  Chao-Ping Hsu,  Yousung Jung,  Jing Kong,  D. S. Lambrecht,  
 WanZhen Liang,  C. Ochsenfeld,  V. A. Rassolov,  L. V. Slipchenko,  
 J. E. Subotnik,  T. Van Voorhis,  J. M. Herbert,  A. I. Krylov,  
 P. M. W. Gill,  M. Head-Gordon

 Contributors to earlier versions of Q-Chem not listed above: 
 R. D. Adamson,  B. Austin,  J. Baker,  G. J. O. Beran,  K. Brandhorst,  
 S. T. Brown,  E. F. C. Byrd,  A. K. Chakraborty,  C.-L. Cheng,  
 Siu Hung Chien,  D. M. Chipman,  D. L. Crittenden,  H. Dachsel,  
 R. J. Doerksen,  A. D. Dutoi,  L. Fusti-Molnar,  W. A. Goddard III,  
 A. Golubeva-Zadorozhnaya,  S. R. Gwaltney,  G. Hawkins,  A. Heyden,  
 S. Hirata,  G. Kedziora,  F. J. Keil,  C. Kelley,  Jihan Kim,  R. A. King,  
 R. Z. Khaliullin,  P. P. Korambath,  W. Kurlancheek,  A. M. Lee,  M. S. Lee,  
 S. V. Levchenko,  Ching Yeh Lin,  D. Liotard,  R. C. Lochan,  I. Lotan,  
 P. E. Maslen,  N. Nair,  D. P. O'Neill,  D. Neuhauser,  E. Neuscamman,  
 C. M. Oana,  R. Olson,  B. Peters,  R. Peverati,  P. A. Pieniazek,  
 Y. M. Rhee,  J. Ritchie,  M. A. Rohrdanz,  E. Rosta,  N. J. Russ,  
 H. F. Schaefer III,  N. E. Schultz,  N. Shenvi,  A. C. Simmonett,  A. Sodt,  
 D. Stuck,  K. S. Thanthiriwatte,  V. Vanovschi,  Tao Wang,  A. Warshel,  
 C. F. Williams,  Q. Wu,  X. Xu,  W. Zhang

 Please cite Q-Chem as follows:
 Y. Shao et al., Mol. Phys. 113, 184-215 (2015)
 DOI: 10.1080/00268976.2014.952696

 Q-Chem 5.2.1 for Intel X86 EM64T Linux

 Parts of Q-Chem use Armadillo 8.300.2 (Tropical Shenanigans).
 http://arma.sourceforge.net/

 Q-Chem begins on Sun Mar 22 17:02:17 2020  

Host: node018
0

     Scratch files written to /tmp/ypli/106205.h81/qchem10825//
NAlpha2: 26
NElect   26
Mult     1

Checking the input file for inconsistencies... 	...done.

--------------------------------------------------------------
User input:
--------------------------------------------------------------
$rem
jobtype = freq
exchange = b3lyp
basis = 6-31g*
$end

$molecule
0 1
C      0.43665038   -0.16436664    0.26279937
C     -0.61972395    0.23328335   -0.37298577
H      1.42116912    0.05287031   -0.12865606
H      0.61081209    1.62112697   -2.73088025
H      4.34834701   -3.45660400   -0.06105383
O     -1.57742396    0.59378666   -0.94937855
H      0.03969147    1.86949640   -3.13054744
H      3.62364356   -3.54317550    0.06105383
H      0.33932841   -0.71557369    1.18822101
$end
--------------------------------------------------------------
 ----------------------------------------------------------------
             Standard Nuclear Orientation (Angstroms)
    I     Atom           X                Y                Z
 ----------------------------------------------------------------
    1      C       0.7513093490     0.4177762175    -0.4543234151
    2      C      -0.4580790476     0.2939945584    -0.0067379027
    3      H       1.2786330733    -0.4431698900    -0.8421479700
    4      H      -0.9380205764    -2.6361162212    -0.4358092096
    5      H       5.5982395674    -0.8727981541     0.5881560832
    6      O      -1.5544974695     0.1817797641     0.3990392117
    7      H      -1.6259435842    -2.7585271585    -0.1921342274
    8      H       5.1239956576    -0.3969340277     0.8983915468
    9      H       1.2396938091     1.3826826839    -0.4424020098
 ----------------------------------------------------------------
 Molecular Point Group                 C1    NOp =  1
 Largest Abelian Subgroup              C1    NOp =  1
 Nuclear Repulsion Energy =          71.40194422 hartrees
 There are       13 alpha and       13 beta electrons
 Requested basis set is 6-31G(d)
 There are 24 shells and 57 basis functions

 Total QAlloc Memory Limit   2000 MB
 Mega-Array Size       188 MB
 MEM_STATIC part       192 MB

                       Distance Matrix (Angstroms)
             C (  1)   C (  2)   H (  3)   H (  4)   H (  5)   O (  6)
   C (  2)  1.295483
   H (  3)  1.081530  2.063369
   H (  4)  3.490048  2.999999  3.144468
   H (  5)  5.122995  6.196313  4.570487  6.846933
   O (  6)  2.469953  1.174470  3.155588  3.002924  7.232534
   H (  7)  3.976051  3.273556  3.770937  0.740000  7.506907  2.999999
   H (  8)  4.649083  5.697034  4.221188  6.598641  0.740000  6.722093
   H (  9)  1.081529  2.063366  1.869505  4.570911  5.014595  3.155582
             H (  7)   H (  8)
   H (  8)  7.233813
   H (  9)  5.042235  4.478009
 
 A cutoff of  1.0D-11 yielded    263 shell pairs
 There are      1638 function pairs
 Smallest overlap matrix eigenvalue = 1.96E-03
 Guess from superposition of atomic densities
 Warning:  Energy on first SCF cycle will be non-variational
 SAD guess density has 26.000000 electrons

 -----------------------------------------------------------------------
  General SCF calculation program by
  Eric Jon Sundstrom, Paul Horn, Yuezhi Mao, Dmitri Zuev, Alec White,
  David Stuck, Shaama M.S., Shane Yost, Joonho Lee, David Small,
  Daniel Levine, Susi Lehtola, Hugh Burton, Evgeny Epifanovsky,
  Bang C. Huynh
 -----------------------------------------------------------------------
 Exchange:     0.2000 Hartree-Fock + 0.0800 Slater + 0.7200 B88
 Correlation:  0.1900 VWN1RPA + 0.8100 LYP
 Using SG-1 standard quadrature grid
 using 2 threads for integral computing
 -------------------------------------------------------
 OpenMP Integral computing Module                
 Release: version 2.0, May 2017, Q-Chem Inc. Pleasanton 
 -------------------------------------------------------
 A restricted SCF calculation will be
 performed using DIIS
 SCF converges when DIIS error is below 1.0e-08
 ---------------------------------------
  Cycle       Energy         DIIS error
 ---------------------------------------
    1    -155.0348928272      9.89e-02  
    2    -154.8735773386      1.44e-02  
    3    -154.8119203243      2.04e-02  
    4    -154.9417780176      4.28e-03  
    5    -154.9474751102      1.41e-03  
    6    -154.9481873917      3.30e-04  
    7    -154.9482359846      1.60e-05  
    8    -154.9482360753      3.30e-06  
    9    -154.9482360794      6.99e-07  
   10    -154.9482360797      5.93e-08  
   11    -154.9482360797      1.13e-08  
   12    -154.9482360797      2.06e-09  Convergence criterion met
 ---------------------------------------
 SCF time:   CPU 4.06s  wall 3.00s 
 SCF   energy in the final basis set =     -154.9482360797
 Total energy in the final basis set =     -154.9482360797
 
 --------------------------------------------------------------
 
                    Orbital Energies (a.u.)
 --------------------------------------------------------------
 
 Alpha MOs
 -- Occupied --
-19.2125 -10.3101 -10.1936  -1.1078  -0.7797  -0.5377  -0.4853  -0.4847
 -0.4422  -0.4377  -0.4360  -0.3988  -0.2423
 -- Virtual --
 -0.0361   0.0702   0.0801   0.0978   0.1288   0.2020   0.2068   0.3062
  0.4998   0.5124   0.5415   0.5767   0.6201   0.6359   0.6622   0.7757
  0.7921   0.8557   0.9219   0.9882   1.0468   1.0552   1.1073   1.1205
  1.1655   1.3955   1.4400   1.4865   1.6316   1.6882   1.7004   1.8904
  1.9897   2.0338   2.1744   2.1878   2.3035   2.8634   2.9050   2.9457
  3.1752   4.1059   4.2217   4.6835
 --------------------------------------------------------------
 
          Ground-State Mulliken Net Atomic Charges

     Atom                 Charge (a.u.)
  ----------------------------------------
      1 C                    -0.501490
      2 C                     0.482578
      3 H                     0.200642
      4 H                    -0.018087
      5 H                     0.000150
      6 O                    -0.382651
      7 H                     0.018944
      8 H                    -0.000164
      9 H                     0.200078
  ----------------------------------------
  Sum of atomic charges =     0.000000

 -----------------------------------------------------------------
                    Cartesian Multipole Moments
 -----------------------------------------------------------------
    Charge (ESU x 10^10)
                -0.0000
    Dipole Moment (Debye)
         X       1.4138      Y       0.1263      Z      -0.5281
       Tot       1.5145
    Quadrupole Moments (Debye-Ang)
        XX     -22.1444     XY       0.4463     YY     -18.7218
        XZ      -0.3332     YZ       0.5586     ZZ     -21.9339
    Octopole Moments (Debye-Ang^2)
       XXX      -3.8492    XXY      -2.0616    XYY      -2.0284
       YYY       5.6583    XXZ      -3.1947    XYZ       1.0726
       YYZ       0.3857    XZZ      -3.1591    YZZ       0.4321
       ZZZ       2.7753
    Hexadecapole Moments (Debye-Ang^3)
      XXXX    -470.4544   XXXY     -11.4760   XXYY     -89.3276
      XYYY       2.0502   YYYY    -122.3415   XXXZ     -15.8584
      XXYZ       2.0150   XYYZ      -4.5866   YYYZ      -0.8432
      XXZZ     -90.0327   XYZZ      -0.4581   YYZZ     -28.6443
      XZZZ      -6.4491   YZZZ       1.6955   ZZZZ     -45.1301
 -----------------------------------------------------------------
 Calculating MO derivatives via CPSCF
    1     0    30    0.0833317  
    2     6    24    0.0108664  
    3    11    19    0.0004993  
    4    18    12    0.0000174  
    5    30     0    0.0000004  Converged
 Time for AOints: 0.4 s (CPU) 0.2 s (wall)
 ------------------------------------------------------------------------------
                     AOints        : Timing summary (seconds)
 ------------------------------------------------------------------------------
     job step          cpu (% of tot)      sys (% of tot)     wall (% of tot)
 ------------------------------------------------------------------------------
  AOints            0.3563E+00 ( 4.6)   0.4000E-05 ( 9.8)   0.2018E+00 ( 5.1)
 ------------------------------------------------------------------------------
   Grand Totals     0.7744E+01          0.4100E-04          0.3987E+01
 ------------------------------------------------------------------------------
 Polarizability Matrix (a.u.)
            1           2           3
    1 -40.2049116  -0.7900587  11.7614558
    2  -0.7900587 -18.8056810  -1.6440255
    3  11.7614558  -1.6440255 -14.9332204
 Calculating analytic Hessian of the SCF energy
 
 Direct stationary perturbation theory relativistic correction:
 
 rels  =       0.047536818970
 relv  =      -0.195691188517
 rel2e =       0.069433984442
 E_rel =      -0.078720385105
 
 Hessian of the SCF Energy
            1           2           3           4           5           6
    1   0.8102314   0.0671981  -0.2886022  -0.5500696  -0.0516355   0.1930641
    2   0.0671981   0.5972520   0.0915198  -0.0516324  -0.1037637   0.0045468
    3  -0.2886022   0.0915198   0.1693962   0.1931133   0.0045286  -0.1040125
    4  -0.5500696  -0.0516324   0.1931133   1.4553403   0.1367562  -0.5036506
    5  -0.0516355  -0.1037637   0.0045286   0.1367562   0.1707359  -0.0376814
    6   0.1930641   0.0045468  -0.1040125  -0.5036506  -0.0376814   0.2847193
    7  -0.1129218   0.1187635   0.0647105  -0.0217061   0.0230821   0.0118127
    8   0.1201576  -0.2399333  -0.0949941  -0.0021228   0.0066996   0.0030961
    9   0.0650160  -0.0944425  -0.0568534   0.0064484  -0.0067959  -0.0079540
   10   0.0000395  -0.0000711  -0.0000615   0.0006719  -0.0001642  -0.0002329
   11  -0.0000459   0.0001501   0.0000648   0.0008745  -0.0013000  -0.0006555
   12  -0.0000505   0.0000743  -0.0000363  -0.0000066  -0.0002481   0.0001323
   13  -0.0000793   0.0000062  -0.0000443   0.0000880   0.0000101  -0.0000281
   14  -0.0000167  -0.0000010  -0.0000097   0.0000154   0.0000075  -0.0000055
   15  -0.0000568  -0.0000083   0.0000074   0.0000651   0.0000138  -0.0000401
   16  -0.0449893  -0.0066674   0.0221643  -0.8628869  -0.0812964   0.2979078
   17  -0.0068180   0.0370382   0.0072415  -0.0819693  -0.0737916   0.0287930
   18   0.0221971   0.0071970   0.0081475   0.2977562   0.0285280  -0.1687768
   19   0.0000610  -0.0000440  -0.0000084  -0.0006510   0.0002385   0.0002750
   20   0.0002626  -0.0000618  -0.0001298  -0.0002710  -0.0002250   0.0000682
   21   0.0000573  -0.0000103   0.0000400   0.0001763  -0.0001237  -0.0001640
   22   0.0001036  -0.0000178   0.0000550  -0.0001045  -0.0000074   0.0000388
   23   0.0000265   0.0000001   0.0000127  -0.0000255  -0.0000099   0.0000088
   24   0.0000723   0.0000029  -0.0000056  -0.0000803  -0.0000129   0.0000504
   25  -0.1023755  -0.1275351   0.0086732  -0.0206821  -0.0269835   0.0008133
   26  -0.1291288  -0.2906805  -0.0082337  -0.0016251   0.0016473   0.0018297
   27   0.0083026  -0.0088797  -0.0166833   0.0061782   0.0117915  -0.0039546
            7           8           9          10          11          12
    1  -0.1129218   0.1201576   0.0650160   0.0000395  -0.0000459  -0.0000505
    2   0.1187635  -0.2399333  -0.0944425  -0.0000711   0.0001501   0.0000743
    3   0.0647105  -0.0949941  -0.0568534  -0.0000615   0.0000648  -0.0000363
    4  -0.0217061  -0.0021228   0.0064484   0.0006719   0.0008745  -0.0000066
    5   0.0230821   0.0066996  -0.0067959  -0.0001642  -0.0013000  -0.0002481
    6   0.0118127   0.0030961  -0.0079540  -0.0002329  -0.0006555   0.0001323
    7   0.1203592  -0.1273347  -0.0720396   0.0000133  -0.0001522   0.0000114
    8  -0.1273347   0.2498300   0.1012740   0.0000178   0.0000075  -0.0000375
    9  -0.0720396   0.1012740   0.0544613   0.0000663   0.0000386   0.0001164
   10   0.0000133   0.0000178   0.0000663   0.3321465   0.0601064  -0.1180015
   11  -0.0001522   0.0000075   0.0000386   0.0601064   0.0109112  -0.0209377
   12   0.0000114  -0.0000375   0.0001164  -0.1180015  -0.0209377   0.0404258
   13   0.0000118   0.0000124   0.0000340  -0.0000006   0.0000006   0.0000005
   14   0.0000241  -0.0000004   0.0000197   0.0000004   0.0000001   0.0000005
   15   0.0000342   0.0000127   0.0000192   0.0000001   0.0000002   0.0000003
   16   0.0033872  -0.0034494  -0.0002412  -0.0003709  -0.0008153   0.0000266
   17  -0.0035905  -0.0026659  -0.0001133  -0.0006687  -0.0012395  -0.0000269
   18  -0.0002947  -0.0001740   0.0046423   0.0000539   0.0000268   0.0001078
   19   0.0000147  -0.0000050  -0.0000285  -0.3324584  -0.0599368   0.1180354
   20   0.0000939   0.0001120  -0.0000002  -0.0592475  -0.0085424   0.0211710
   21  -0.0000088   0.0000373  -0.0000445   0.1181787   0.0214365  -0.0406909
   22   0.0000418  -0.0000127  -0.0000175   0.0000009  -0.0000004  -0.0000006
   23  -0.0000343  -0.0000021  -0.0000258  -0.0000002  -0.0000002  -0.0000006
   24  -0.0000198  -0.0000144  -0.0000195   0.0000000  -0.0000002  -0.0000004
   25   0.0107998   0.0127368   0.0007621  -0.0000423  -0.0000310  -0.0000146
   26  -0.0108518  -0.0140474   0.0000455   0.0000271   0.0000133   0.0000050
   27  -0.0042057  -0.0092000   0.0056322  -0.0000030   0.0000268  -0.0000552
           13          14          15          16          17          18
    1  -0.0000793  -0.0000167  -0.0000568  -0.0449893  -0.0068180   0.0221971
    2   0.0000062  -0.0000010  -0.0000083  -0.0066674   0.0370382   0.0071970
    3  -0.0000443  -0.0000097   0.0000074   0.0221643   0.0072415   0.0081475
    4   0.0000880   0.0000154   0.0000651  -0.8628869  -0.0819693   0.2977562
    5   0.0000101   0.0000075   0.0000138  -0.0812964  -0.0737916   0.0285280
    6  -0.0000281  -0.0000055  -0.0000401   0.2979078   0.0287930  -0.1687768
    7   0.0000118   0.0000241   0.0000342   0.0033872  -0.0035905  -0.0002947
    8   0.0000124  -0.0000004   0.0000127  -0.0034494  -0.0026659  -0.0001740
    9   0.0000340   0.0000197   0.0000192  -0.0002412  -0.0001133   0.0046423
   10  -0.0000006   0.0000004   0.0000001  -0.0003709  -0.0006687   0.0000539
   11   0.0000006   0.0000001   0.0000002  -0.0008153  -0.0012395   0.0000268
   12   0.0000005   0.0000005   0.0000003   0.0000266  -0.0000269   0.0001078
   13   0.1573448  -0.1592757  -0.1038378  -0.0000601  -0.0000072   0.0000220
   14  -0.1592757   0.1583859   0.1042039  -0.0000094  -0.0000012   0.0000033
   15  -0.1038378   0.1042039   0.0664278  -0.0000527  -0.0000072   0.0000255
   16  -0.0000601  -0.0000094  -0.0000527   0.9012333   0.0887382  -0.3210490
   17  -0.0000072  -0.0000012  -0.0000072   0.0887382   0.0425336  -0.0328121
   18   0.0000220   0.0000033   0.0000255  -0.3210490  -0.0328121   0.1522730
   19   0.0000005  -0.0000003   0.0000000   0.0005150   0.0006956  -0.0000305
   20  -0.0000005  -0.0000001  -0.0000002   0.0000892  -0.0007501  -0.0002131
   21  -0.0000005  -0.0000004  -0.0000002  -0.0001651  -0.0004521   0.0000229
   22  -0.1573219   0.1592740   0.1038330   0.0000691   0.0000071  -0.0000265
   23   0.1592700  -0.1583910  -0.1042052   0.0000169   0.0000022  -0.0000060
   24   0.1038311  -0.1042063  -0.0664381   0.0000641   0.0000078  -0.0000316
   25   0.0000168  -0.0000117   0.0000149   0.0031026   0.0036127   0.0013715
   26  -0.0000160   0.0000003  -0.0000096   0.0033936  -0.0011258  -0.0025499
   27   0.0000230  -0.0000055  -0.0000017   0.0013451  -0.0026306   0.0035893
           19          20          21          22          23          24
    1   0.0000610   0.0002626   0.0000573   0.0001036   0.0000265   0.0000723
    2  -0.0000440  -0.0000618  -0.0000103  -0.0000178   0.0000001   0.0000029
    3  -0.0000084  -0.0001298   0.0000400   0.0000550   0.0000127  -0.0000056
    4  -0.0006510  -0.0002710   0.0001763  -0.0001045  -0.0000255  -0.0000803
    5   0.0002385  -0.0002250  -0.0001237  -0.0000074  -0.0000099  -0.0000129
    6   0.0002750   0.0000682  -0.0001640   0.0000388   0.0000088   0.0000504
    7   0.0000147   0.0000939  -0.0000088   0.0000418  -0.0000343  -0.0000198
    8  -0.0000050   0.0001120   0.0000373  -0.0000127  -0.0000021  -0.0000144
    9  -0.0000285  -0.0000002  -0.0000445  -0.0000175  -0.0000258  -0.0000195
   10  -0.3324584  -0.0592475   0.1181787   0.0000009  -0.0000002   0.0000000
   11  -0.0599368  -0.0085424   0.0214365  -0.0000004  -0.0000002  -0.0000002
   12   0.1180354   0.0211710  -0.0406909  -0.0000006  -0.0000006  -0.0000004
   13   0.0000005  -0.0000005  -0.0000005  -0.1573219   0.1592700   0.1038311
   14  -0.0000003  -0.0000001  -0.0000004   0.1592740  -0.1583910  -0.1042063
   15   0.0000000  -0.0000002  -0.0000002   0.1038330  -0.1042052  -0.0664381
   16   0.0005150   0.0000892  -0.0001651   0.0000691   0.0000169   0.0000641
   17   0.0006956  -0.0007501  -0.0004521   0.0000071   0.0000022   0.0000078
   18  -0.0000305  -0.0002131   0.0000229  -0.0000265  -0.0000060  -0.0000316
   19   0.3324984   0.0590707  -0.1182333  -0.0000007   0.0000002  -0.0000001
   20   0.0590707   0.0094708  -0.0208932   0.0000005   0.0000002   0.0000003
   21  -0.1182333  -0.0208932   0.0408266   0.0000005   0.0000005   0.0000003
   22  -0.0000007   0.0000005   0.0000005   0.1572473  -0.1592669  -0.1038434
   23   0.0000002   0.0000002   0.0000005  -0.1592669   0.1583968   0.1042091
   24  -0.0000001   0.0000003   0.0000003  -0.1038434   0.1042091   0.0664466
   25   0.0000204   0.0000020  -0.0000050  -0.0000357   0.0000133  -0.0000240
   26  -0.0000190  -0.0000036   0.0000054   0.0000234   0.0000041   0.0000137
   27  -0.0000096  -0.0000029   0.0000098  -0.0000393   0.0000064  -0.0000021
           25          26          27
    1  -0.1023755  -0.1291288   0.0083026
    2  -0.1275351  -0.2906805  -0.0088797
    3   0.0086732  -0.0082337  -0.0166833
    4  -0.0206821  -0.0016251   0.0061782
    5  -0.0269835   0.0016473   0.0117915
    6   0.0008133   0.0018297  -0.0039546
    7   0.0107998  -0.0108518  -0.0042057
    8   0.0127368  -0.0140474  -0.0092000
    9   0.0007621   0.0000455   0.0056322
   10  -0.0000423   0.0000271  -0.0000030
   11  -0.0000310   0.0000133   0.0000268
   12  -0.0000146   0.0000050  -0.0000552
   13   0.0000168  -0.0000160   0.0000230
   14  -0.0000117   0.0000003  -0.0000055
   15   0.0000149  -0.0000096  -0.0000017
   16   0.0031026   0.0033936   0.0013451
   17   0.0036127  -0.0011258  -0.0026306
   18   0.0013715  -0.0025499   0.0035893
   19   0.0000204  -0.0000190  -0.0000096
   20   0.0000020  -0.0000036  -0.0000029
   21  -0.0000050   0.0000054   0.0000098
   22  -0.0000357   0.0000234  -0.0000393
   23   0.0000133   0.0000041   0.0000064
   24  -0.0000240   0.0000137  -0.0000021
   25   0.1091959   0.1381965  -0.0115914
   26   0.1381965   0.3041923   0.0088939
   27  -0.0115914   0.0088939   0.0114657
 **********************************************************************
 **                                                                  **
 **                       VIBRATIONAL ANALYSIS                       **
 **                       --------------------                       **
 **                                                                  **
 **        VIBRATIONAL FREQUENCIES (CM**-1) AND NORMAL MODES         **
 **     FORCE CONSTANTS (mDYN/ANGSTROM) AND REDUCED MASSES (AMU)     **
 **                  INFRARED INTENSITIES (KM/MOL)                   **
 **                                                                  **
 **********************************************************************
 

 Mode:                 1                      2                      3
 Frequency:      -278.40                -272.70                -263.60
 Force Cnst:      0.0461                 0.0442                 0.0413
 Red. Mass:       1.0093                 1.0088                 1.0097
 IR Active:          YES                    YES                    YES
 IR Intens:        0.007                  0.015                  0.202
 Raman Active:       YES                    YES                    YES
               X      Y      Z        X      Y      Z        X      Y      Z
 C          0.001 -0.007 -0.001   -0.001  0.005  0.002   -0.003  0.000  0.002
 C         -0.000  0.000 -0.003   -0.001 -0.001 -0.000   -0.003 -0.007 -0.000
 H          0.003 -0.013  0.015    0.006  0.008  0.007   -0.004  0.004 -0.007
 H          0.007 -0.015  0.044    0.007  0.015 -0.003    0.146 -0.593 -0.119
 H         -0.131  0.292 -0.608   -0.516 -0.447 -0.087   -0.011 -0.006  0.003
 O         -0.002  0.005 -0.005   -0.001 -0.005 -0.003   -0.003 -0.008  0.000
 H         -0.001  0.006  0.030    0.010 -0.025 -0.014   -0.022  0.775  0.097
 H          0.134 -0.269  0.658    0.536  0.476  0.103    0.015  0.026 -0.006
 H          0.003 -0.007 -0.012   -0.005  0.007  0.006   -0.005  0.001  0.011
 TransDip   0.001  0.002  0.001    0.003  0.001  0.003    0.001  0.014  0.000

 Mode:                 4                      5                      6
 Frequency:      -248.16                -151.27                 -75.10
 Force Cnst:      0.0366                 0.0137                 0.0058
 Red. Mass:       1.0083                 1.0143                 1.7580
 IR Active:          YES                    YES                    YES
 IR Intens:        0.618                  0.009                  0.614
 Raman Active:       YES                    YES                    YES
               X      Y      Z        X      Y      Z        X      Y      Z
 C         -0.002  0.003 -0.004    0.003  0.013  0.011    0.062  0.038  0.182
 C         -0.001  0.001 -0.001    0.003 -0.000  0.008   -0.004  0.004 -0.008
 H         -0.029  0.018 -0.074    0.258 -0.111  0.635    0.141  0.061  0.238
 H          0.256 -0.091  0.692   -0.015  0.011 -0.072   -0.049 -0.107  0.313
 H          0.006 -0.006 -0.016   -0.023 -0.043 -0.042    0.015 -0.074 -0.513
 O          0.001 -0.001  0.003    0.004 -0.010  0.007   -0.050 -0.018 -0.138
 H         -0.233  0.057 -0.615   -0.070  0.039 -0.213   -0.038 -0.078  0.358
 H          0.000 -0.002 -0.031   -0.028 -0.046 -0.046    0.009 -0.074 -0.521
 H          0.021 -0.010  0.056   -0.250  0.149 -0.605    0.025  0.056  0.248
 TransDip  -0.009  0.004 -0.023    0.000  0.003 -0.001    0.008  0.007  0.023

 Mode:                 7                      8                      9
 Frequency:       -70.32                 -50.80                 -26.36
 Force Cnst:      0.0048                 0.0016                 0.0004
 Red. Mass:       1.6455                 1.0526                 1.0489
 IR Active:          YES                    YES                    YES
 IR Intens:        0.830                  0.005                  0.002
 Raman Active:       YES                    YES                    YES
               X      Y      Z        X      Y      Z        X      Y      Z
 C         -0.011  0.177 -0.068   -0.032  0.036 -0.019   -0.030  0.010  0.002
 C          0.024  0.004 -0.022   -0.024  0.016 -0.005   -0.032  0.005 -0.004
 H          0.095  0.262 -0.113   -0.010  0.038  0.005   -0.017  0.006  0.027
 H         -0.350 -0.162  0.296    0.579  0.020  0.095   -0.024 -0.001  0.011
 H         -0.084 -0.310  0.204   -0.069 -0.355  0.020    0.699 -0.108  0.077
 O          0.048 -0.114  0.010   -0.019  0.003  0.005   -0.033  0.002 -0.009
 H         -0.348 -0.073  0.347    0.600 -0.068  0.112   -0.024 -0.000  0.010
 H         -0.085 -0.314  0.210   -0.071 -0.357  0.020    0.684 -0.118  0.069
 H         -0.139  0.242 -0.040   -0.058  0.049 -0.052   -0.043  0.016 -0.020
 TransDip  -0.003  0.029 -0.003   -0.001  0.001 -0.002    0.001  0.001  0.001

 Mode:                10                     11                     12
 Frequency:       224.81                 428.84                 537.05
 Force Cnst:      0.0319                 0.2525                 1.5387
 Red. Mass:       1.0725                 2.3300                 9.0549
 IR Active:          YES                    YES                    YES
 IR Intens:        0.112                  3.238                 58.784
 Raman Active:       YES                    YES                    YES
               X      Y      Z        X      Y      Z        X      Y      Z
 C         -0.001 -0.007 -0.000    0.002 -0.013 -0.003   -0.136  0.071 -0.343
 C         -0.001 -0.032 -0.006   -0.005  0.286  0.061    0.247 -0.132  0.636
 H          0.016  0.005 -0.005   -0.517 -0.400  0.115    0.131 -0.076  0.347
 H          0.001  0.778  0.160   -0.016 -0.026  0.023    0.005 -0.004  0.023
 H          0.001  0.005 -0.001   -0.006 -0.026  0.000    0.013  0.017 -0.068
 O          0.000 -0.058 -0.012    0.004 -0.156 -0.036   -0.102  0.054 -0.257
 H          0.019  0.593  0.112   -0.018 -0.003  0.030    0.001 -0.002  0.013
 H          0.001  0.005 -0.000   -0.004 -0.022 -0.004    0.009  0.012 -0.066
 H         -0.018  0.001  0.009    0.528 -0.290 -0.286    0.137 -0.076  0.344
 TransDip  -0.009  0.004  0.004   -0.002  0.057  0.009    0.089 -0.048  0.224

 Mode:                13                     14                     15
 Frequency:       595.13                 986.51                1207.16
 Force Cnst:      0.2620                 1.0816                 1.9353
 Red. Mass:       1.2557                 1.8863                 2.2541
 IR Active:          YES                    YES                    YES
 IR Intens:       90.399                 10.063                 15.131
 Raman Active:       YES                    YES                    YES
               X      Y      Z        X      Y      Z        X      Y      Z
 C         -0.036  0.019 -0.093    0.004 -0.178 -0.039   -0.206 -0.021  0.076
 C         -0.032  0.019 -0.081   -0.004  0.204  0.045    0.039  0.005 -0.014
 H          0.247 -0.136  0.636    0.597  0.272 -0.179   -0.588 -0.271  0.174
 H          0.002 -0.001  0.002   -0.001 -0.009  0.002   -0.000 -0.000 -0.000
 H          0.003  0.001  0.004   -0.000 -0.004  0.000   -0.000 -0.000 -0.000
 O          0.020 -0.011  0.050    0.001 -0.046 -0.010    0.200  0.021 -0.074
 H         -0.000  0.000 -0.002   -0.002  0.003  0.005   -0.000 -0.003 -0.001
 H         -0.003 -0.002  0.000    0.000 -0.003  0.000   -0.000 -0.000  0.000
 H          0.254 -0.137  0.641   -0.605  0.148  0.265   -0.600  0.150  0.266
 TransDip   0.113 -0.061  0.276    0.005  0.100  0.018   -0.116 -0.012  0.043

 Mode:                16                     17                     18
 Frequency:      1446.70                2269.58                3222.20
 Force Cnst:      1.9893                34.6951                 6.4826
 Red. Mass:       1.6132                11.4322                 1.0597
 IR Active:          YES                    YES                    YES
 IR Intens:       11.903                515.869                 26.768
 Raman Active:       YES                    YES                    YES
               X      Y      Z        X      Y      Z        X      Y      Z
 C          0.192  0.020 -0.071   -0.270 -0.027  0.100   -0.064 -0.006  0.024
 C          0.011  0.001 -0.004    0.764  0.078 -0.283    0.008  0.001 -0.003
 H         -0.484 -0.481  0.089   -0.144  0.153  0.088    0.342 -0.564 -0.252
 H         -0.000  0.002  0.000   -0.002  0.005  0.002    0.000 -0.000 -0.000
 H         -0.000  0.000 -0.000    0.001  0.000  0.001    0.000 -0.000 -0.000
 O         -0.090 -0.009  0.033   -0.353 -0.036  0.131    0.000  0.000 -0.000
 H          0.000 -0.000 -0.000    0.002 -0.001 -0.001   -0.000 -0.000 -0.000
 H          0.000  0.000  0.000   -0.001 -0.000 -0.001    0.000  0.000  0.000
 H         -0.503  0.380  0.277   -0.137 -0.181  0.015    0.316  0.630  0.009
 TransDip  -0.103 -0.012  0.038    0.679  0.068 -0.252    0.155  0.020 -0.056

 Mode:                19                     20                     21
 Frequency:      3304.34                4492.39                4493.48
 Force Cnst:      7.1817                11.9838                11.9896
 Red. Mass:       1.1164                 1.0078                 1.0078
 IR Active:          YES                    YES                    YES
 IR Intens:        5.633                  1.917                  0.003
 Raman Active:       YES                    YES                    YES
               X      Y      Z        X      Y      Z        X      Y      Z
 C          0.002 -0.097 -0.021    0.000  0.000 -0.000   -0.000 -0.000 -0.000
 C          0.000 -0.001 -0.000   -0.000  0.000  0.000    0.000 -0.000 -0.000
 H         -0.354  0.551  0.255    0.000 -0.000 -0.000   -0.000  0.000  0.000
 H         -0.000  0.000  0.000   -0.657 -0.118  0.233   -0.002 -0.000  0.001
 H         -0.000 -0.000  0.000   -0.001  0.001  0.001    0.453 -0.455 -0.296
 O          0.000 -0.000 -0.000    0.000  0.000 -0.000   -0.000  0.000 -0.000
 H          0.000  0.000  0.000    0.657  0.117 -0.233    0.002  0.000 -0.001
 H         -0.000 -0.000 -0.000    0.001 -0.001 -0.001   -0.453  0.455  0.296
 H          0.330  0.622  0.002    0.000 -0.000 -0.000    0.000 -0.000  0.000
 TransDip  -0.002  0.074  0.016    0.039  0.016 -0.012    0.001 -0.001 -0.001

 STANDARD THERMODYNAMIC QUANTITIES AT   298.15 K  AND     1.00 ATM

   This Molecule has  9 Imaginary Frequencies
   Zero point vibrational energy:       33.178 kcal/mol

   Atom    1 Element C  Has Mass   12.00000
   Atom    2 Element C  Has Mass   12.00000
   Atom    3 Element H  Has Mass    1.00783
   Atom    4 Element H  Has Mass    1.00783
   Atom    5 Element H  Has Mass    1.00783
   Atom    6 Element O  Has Mass   15.99491
   Atom    7 Element H  Has Mass    1.00783
   Atom    8 Element H  Has Mass    1.00783
   Atom    9 Element H  Has Mass    1.00783
   Molecular Mass:    46.041890 amu
   Principal axes and moments of inertia in amu*Bohr^2:
                             1           2           3
    Eigenvalues --       98.39861   419.95850   469.47269
          X               0.99782    -0.00479     0.06582
          Y               0.00190     0.99903     0.04391
          Z              -0.06597    -0.04369     0.99686
   Rotational Symmetry Number is   1
   The Molecule is an Asymmetric Top
   Translational Enthalpy:        0.889 kcal/mol
   Rotational Enthalpy:           0.889 kcal/mol
   Vibrational Enthalpy:         33.948 kcal/mol
   gas constant (RT):             0.592 kcal/mol
   Translational Entropy:        37.406  cal/mol.K
   Rotational Entropy:           24.476  cal/mol.K
   Vibrational Entropy:           3.966  cal/mol.K

   Total Enthalpy:               36.318 kcal/mol
   Total Entropy:                65.848  cal/mol.K
Archival summary:
1\1\node018\FREQ\ProcedureUnspecified\6-31G*\126\guest94\SunMar2217:02:282020SunMar2217:02:282020\0\\#,FREQ,ProcedureUnspecified,6-31G*,\\0,1\C\O,1,1.17447\C,1,1.29548,2,180\H,3,1.08153,1,120.198,2,-0.323275,0\H,3,1.08153,1,120.199,2,179.677,0\H,1,3,2,78.8573,3,179.677,0\H,6,0.74,1,105.26,2,-0.00224612,0\H,5,4.22119,3,106.713,1,-132.983,0\H,8,0.74,5,113.822,3,-168.495,0\\\@

 Total job time:  10.32s(wall), 24.25s(cpu) 
 Sun Mar 22 17:02:28 2020

        *************************************************************
        *                                                           *
        *  Thank you very much for using Q-Chem.  Have a nice day.  *
        *                                                           *
        *************************************************************


