                  Welcome to Q-Chem
     A Quantum Leap Into The Future Of Chemistry


 Q-Chem 5.2 (devel), Q-Chem, Inc., Pleasanton, CA (2019)

 Yihan Shao,  Zhengting Gan,  E. Epifanovsky,  A. T. B. Gilbert,  M. Wormit,  
 J. Kussmann,  A. W. Lange,  A. Behn,  Jia Deng,  Xintian Feng,  D. Ghosh,  
 M. Goldey,  P. R. Horn,  L. D. Jacobson,  I. Kaliman,  T. Kus,  A. Landau,  
 Jie Liu,  E. I. Proynov,  R. M. Richard,  R. P. Steele,  E. J. Sundstrom,  
 H. L. Woodcock III,  P. M. Zimmerman,  D. Zuev,  B. Albrecht,  E. Alguire,  
 S. A. Baeppler,  D. Barton,  Z. Benda,  Y. A. Bernard,  E. J. Berquist,  
 K. B. Bravaya,  H. Burton,  D. Casanova,  Chun-Min Chang,  Yunqing Chen,  
 A. Chien,  K. D. Closser,  M. P. Coons,  S. Coriani,  S. Dasgupta,  
 A. L. Dempwolff,  M. Diedenhofen,  Hainam Do,  R. G. Edgar,  Po-Tung Fang,  
 S. Faraji,  S. Fatehi,  Qingguo Feng,  K. D. Fenk,  J. Fosso-Tande,  
 J. Gayvert,  Qinghui Ge,  A. Ghysels,  G. Gidofalvi,  J. Gomes,  
 J. Gonthier,  A. Gunina,  D. Hait,  M. W. D. Hanson-Heine,  
 P. H. P. Harbach,  A. W. Hauser,  M. F. Herbst,  J. E. Herr,  
 E. G. Hohenstein,  Z. C. Holden,  Kerwin Hui,  B. C. Huynh,  T.-C. Jagau,  
 Hyunjun Ji,  B. Kaduk,  K. Khistyaev,  Jaehoon Kim,  P. Klunzinger,  K. Koh,  
 D. Kosenkov,  L. Koulias,  T. Kowalczyk,  C. M. Krauter,  A. Kunitsa,  
 Ka Un Lao,  A. Laurent,  K. V. Lawler,  Joonho Lee,  D. Lefrancois,  
 S. Lehtola,  D. S. Levine,  Yi-Pei Li,  You-Sheng Lin,  Fenglai Liu,  
 E. Livshits,  A. Luenser,  P. Manohar,  E. Mansoor,  S. F. Manzer,  
 Shan-Ping Mao,  Yuezhi Mao,  N. Mardirossian,  A. V. Marenich,  
 T. Markovich,  L. A. Martinez-Martinez,  S. A. Maurer,  N. J. Mayhall,  
 S. C. McKenzie,  J.-M. Mewes,  P. Morgante,  A. F. Morrison,  
 J. W. Mullinax,  K. Nanda,  T. S. Nguyen-Beck,  R. Olivares-Amaya,  
 J. A. Parkhill,  Zheng Pei,  T. M. Perrine,  F. Plasser,  P. Pokhilko,  
 S. Prager,  A. Prociuk,  E. Ramos,  D. R. Rehn,  F. Rob,  M. Scheurer,  
 M. Schneider,  N. Sergueev,  S. M. Sharada,  S. Sharma,  D. W. Small,  
 T. Stauch,  T. Stein,  Yu-Chuan Su,  A. J. W. Thom,  A. Tkatchenko,  
 T. Tsuchimochi,  N. M. Tubman,  L. Vogt,  M. L. Vidal,  O. Vydrov,  
 M. A. Watson,  J. Wenzel,  M. de Wergifosse,  T. A. Wesolowski,  A. White,  
 J. Witte,  A. Yamada,  Jun Yang,  K. Yao,  S. Yeganeh,  S. R. Yost,  
 Zhi-Qiang You,  A. Zech,  Igor Ying Zhang,  Xing Zhang,  Yan Zhao,  
 Ying Zhu,  B. R. Brooks,  G. K. L. Chan,  C. J. Cramer,  M. S. Gordon,  
 W. J. Hehre,  A. Klamt,  M. W. Schmidt,  C. D. Sherrill,  D. G. Truhlar,  
 A. Aspuru-Guzik,  R. Baer,  A. T. Bell,  N. A. Besley,  Jeng-Da Chai,  
 A. E. DePrince, III,  R. A. DiStasio Jr.,  A. Dreuw,  B. D. Dunietz,  
 T. R. Furlani,  Chao-Ping Hsu,  Yousung Jung,  Jing Kong,  D. S. Lambrecht,  
 WanZhen Liang,  C. Ochsenfeld,  V. A. Rassolov,  L. V. Slipchenko,  
 J. E. Subotnik,  T. Van Voorhis,  J. M. Herbert,  A. I. Krylov,  
 P. M. W. Gill,  M. Head-Gordon

 Contributors to earlier versions of Q-Chem not listed above: 
 R. D. Adamson,  B. Austin,  J. Baker,  G. J. O. Beran,  K. Brandhorst,  
 S. T. Brown,  E. F. C. Byrd,  A. K. Chakraborty,  C.-L. Cheng,  
 Siu Hung Chien,  D. M. Chipman,  D. L. Crittenden,  H. Dachsel,  
 R. J. Doerksen,  A. D. Dutoi,  L. Fusti-Molnar,  W. A. Goddard III,  
 A. Golubeva-Zadorozhnaya,  S. R. Gwaltney,  G. Hawkins,  A. Heyden,  
 S. Hirata,  G. Kedziora,  F. J. Keil,  C. Kelley,  Jihan Kim,  R. A. King,  
 R. Z. Khaliullin,  P. P. Korambath,  W. Kurlancheek,  A. M. Lee,  M. S. Lee,  
 S. V. Levchenko,  Ching Yeh Lin,  D. Liotard,  R. C. Lochan,  I. Lotan,  
 P. E. Maslen,  N. Nair,  D. P. O'Neill,  D. Neuhauser,  E. Neuscamman,  
 C. M. Oana,  R. Olson,  B. Peters,  R. Peverati,  P. A. Pieniazek,  
 Y. M. Rhee,  J. Ritchie,  M. A. Rohrdanz,  E. Rosta,  N. J. Russ,  
 H. F. Schaefer III,  N. E. Schultz,  N. Shenvi,  A. C. Simmonett,  A. Sodt,  
 D. Stuck,  K. S. Thanthiriwatte,  V. Vanovschi,  Tao Wang,  A. Warshel,  
 C. F. Williams,  Q. Wu,  X. Xu,  W. Zhang

 Please cite Q-Chem as follows:
 Y. Shao et al., Mol. Phys. 113, 184-215 (2015)
 DOI: 10.1080/00268976.2014.952696

 Q-Chem 5.2.1 for Intel X86 EM64T Linux

 Parts of Q-Chem use Armadillo 8.300.2 (Tropical Shenanigans).
 http://arma.sourceforge.net/

 Q-Chem begins on Mon Mar  9 18:26:24 2020  

Host: node018
0

     Scratch files written to /tmp/ypli/105350.h81/qchem15455//
NAlpha2: 26
NElect   26
Mult     1

Checking the input file for inconsistencies... 	...done.

--------------------------------------------------------------
User input:
--------------------------------------------------------------
$rem
jobtype = freq
exchange = b3lyp
basis = 6-31g*
$end

$molecule
0 1
C     -6.28122074    0.46074381    0.04085374
C     -6.07136283    1.89923092   -0.34029964
H     -6.70427846    2.65093545    0.11367416
H     -7.05823979    0.22465853    0.75656264
H     -6.09887465   -0.30250308   -0.70475889
O     -5.15183247    1.20623122    0.51337584
H     -5.11994643    2.02144483    0.84299602
H     -5.74490681    2.12377400   -1.34764316
H     -4.71669082    1.42014844    0.99605666
$end
--------------------------------------------------------------
 ----------------------------------------------------------------
             Standard Nuclear Orientation (Angstroms)
    I     Atom           X                Y                Z
 ----------------------------------------------------------------
    1      C       0.9064507319     0.0708190567    -0.0338054983
    2      C      -0.4432760513     0.7305366781     0.0058641110
    3      H      -0.8461774257     1.1369289713    -0.9129666094
    4      H       1.4303870504     0.0241885883    -0.9798765457
    5      H       1.5431015352     0.1454587621     0.8384552279
    6      O      -0.2998884070    -0.6930438942     0.0919154317
    7      H      -1.0566354907    -0.6174294604    -0.3506404644
    8      H      -0.7334663119     1.2581921948     0.9053658416
    9      H      -0.7171501852    -1.2111223113    -0.0680125796
 ----------------------------------------------------------------
 Molecular Point Group                 C1    NOp =  1
 Largest Abelian Subgroup              C1    NOp =  1
 Nuclear Repulsion Energy =          94.88154690 hartrees
 There are       13 alpha and       13 beta electrons
 Requested basis set is 6-31G(d)
 There are 24 shells and 57 basis functions

 Total QAlloc Memory Limit   2000 MB
 Mega-Array Size       188 MB
 MEM_STATIC part       192 MB

                       Distance Matrix (Angstroms)
             C (  1)   C (  2)   H (  3)   H (  4)   H (  5)   O (  6)
   C (  2)  1.502852
   H (  3)  2.231865  1.082467
   H (  4)  1.082467  2.231866  2.534840
   H (  5)  1.082467  2.231865  3.123963  1.825854
   O (  6)  1.433369  1.433369  2.158013  2.158012  2.158013
   H (  7)  2.104229  1.523259  1.854259  2.644408  2.958814  0.879909
   H (  8)  2.231866  1.082467  1.825854  3.123966  2.534840  2.158012
   H (  9)  2.068967  1.962270  2.498788  2.639963  2.787604  0.684171
             H (  7)   H (  8)
   H (  8)  2.280339
   H (  9)  0.740000  2.654288
 
 A cutoff of  1.0D-11 yielded    300 shell pairs
 There are      1734 function pairs
 Smallest overlap matrix eigenvalue = 7.09E-03
 Guess from superposition of atomic densities
 Warning:  Energy on first SCF cycle will be non-variational
 SAD guess density has 26.000000 electrons

 -----------------------------------------------------------------------
  General SCF calculation program by
  Eric Jon Sundstrom, Paul Horn, Yuezhi Mao, Dmitri Zuev, Alec White,
  David Stuck, Shaama M.S., Shane Yost, Joonho Lee, David Small,
  Daniel Levine, Susi Lehtola, Hugh Burton, Evgeny Epifanovsky,
  Bang C. Huynh
 -----------------------------------------------------------------------
 Exchange:     0.2000 Hartree-Fock + 0.0800 Slater + 0.7200 B88
 Correlation:  0.1900 VWN1RPA + 0.8100 LYP
 Using SG-1 standard quadrature grid
 using 2 threads for integral computing
 -------------------------------------------------------
 OpenMP Integral computing Module                
 Release: version 2.0, May 2017, Q-Chem Inc. Pleasanton 
 -------------------------------------------------------
 A restricted SCF calculation will be
 performed using DIIS
 SCF converges when DIIS error is below 1.0e-08
 ---------------------------------------
  Cycle       Energy         DIIS error
 ---------------------------------------
    1    -156.0253774610      1.50e-01  
    2    -153.9889010762      1.86e-02  
    3    -153.6171004898      3.39e-02  
    4    -154.1697109413      6.28e-03  
    5    -154.1643125342      7.03e-03  
    6    -154.1894593494      1.34e-03  
    7    -154.1922028581      1.47e-03  
    8    -154.1937130527      1.29e-03  
    9    -154.1948635496      1.03e-03  
   10    -154.1955208683      5.57e-04  
   11    -154.1957161757      1.21e-04  
   12    -154.1957207826      3.65e-05  
   13    -154.1957214404      2.49e-05  
   14    -154.1957220257      2.63e-06  
   15    -154.1957220296      9.89e-07  
   16    -154.1957220303      3.90e-07  
   17    -154.1957220304      6.04e-08  
   18    -154.1957220304      1.63e-08  
   19    -154.1957220304      2.72e-09  Convergence criterion met
 ---------------------------------------
 SCF time:   CPU 6.98s  wall 4.00s 
 SCF   energy in the final basis set =     -154.1957220304
 Total energy in the final basis set =     -154.1957220304
 
 --------------------------------------------------------------
 
                    Orbital Energies (a.u.)
 --------------------------------------------------------------
 
 Alpha MOs
 -- Occupied --
-19.2236 -10.2860 -10.2353  -1.3511  -0.9378  -0.7147  -0.6203  -0.5852
 -0.5329  -0.4157  -0.4038  -0.3839  -0.0350
 -- Virtual --
  0.0202   0.0773   0.1092   0.1279   0.1469   0.1992   0.2073   0.2483
  0.4160   0.5074   0.5185   0.5525   0.5907   0.6743   0.7398   0.8107
  0.8461   0.8688   0.9024   0.9157   0.9390   1.1276   1.1790   1.2194
  1.3086   1.3218   1.5415   1.7050   1.7689   1.8218   1.8488   1.9501
  2.1247   2.2056   2.2320   2.3876   2.4130   2.5040   2.7389   2.7577
  3.2882   3.9403   4.1898   4.3311
 --------------------------------------------------------------
 
          Ground-State Mulliken Net Atomic Charges

     Atom                 Charge (a.u.)
  ----------------------------------------
      1 C                    -0.432870
      2 C                    -0.312480
      3 H                     0.239304
      4 H                     0.195895
      5 H                     0.179161
      6 O                     0.249171
      7 H                    -0.206107
      8 H                     0.211743
      9 H                    -0.123817
  ----------------------------------------
  Sum of atomic charges =     0.000000

 -----------------------------------------------------------------
                    Cartesian Multipole Moments
 -----------------------------------------------------------------
    Charge (ESU x 10^10)
                -0.0000
    Dipole Moment (Debye)
         X       1.3234      Y       1.5946      Z       0.2994
       Tot       2.0938
    Quadrupole Moments (Debye-Ang)
        XX     -24.0577     XY      -3.2110     YY     -21.8760
        XZ      -0.9417     YZ      -0.4273     ZZ     -20.0894
    Octopole Moments (Debye-Ang^2)
       XXX       7.9517    XXY       3.0052    XYY       0.3497
       YYY       1.6692    XXZ       1.5482    XYZ       0.9922
       YYZ       1.1711    XZZ       1.9797    YZZ       2.2304
       ZZZ       1.7014
    Hexadecapole Moments (Debye-Ang^3)
      XXXX    -112.3427   XXXY      -9.8468   XXYY     -33.4957
      XYYY      -8.3473   YYYY     -81.7008   XXXZ      -4.4141
      XXYZ      -1.8476   XYYZ      -1.2166   YYYZ      -1.9622
      XXZZ     -21.4814   XYZZ      -3.3981   YYZZ     -18.3140
      XZZZ      -2.8359   YZZZ      -1.8455   ZZZZ     -34.9107
 -----------------------------------------------------------------
 Calculating MO derivatives via CPSCF
    1     0    30    0.1052258  
    2     0    30    0.0175236  
    3     0    30    0.0014399  
    4     2    28    0.0000605  
    5    29     1    0.0000016  
    6    30     0    0.0000000  Converged
 Time for AOints: 0.4 s (CPU) 0.2 s (wall)
 ------------------------------------------------------------------------------
                     AOints        : Timing summary (seconds)
 ------------------------------------------------------------------------------
     job step          cpu (% of tot)      sys (% of tot)     wall (% of tot)
 ------------------------------------------------------------------------------
  AOints            0.4020E+00 ( 3.7)   0.4000E-05 (11.1)   0.2306E+00 ( 4.1)
 ------------------------------------------------------------------------------
   Grand Totals     0.1099E+02          0.3600E-04          0.5644E+01
 ------------------------------------------------------------------------------
 Polarizability Matrix (a.u.)
            1           2           3
    1 -68.8083733  -6.3360120  -7.7339742
    2  -6.3360120 -50.4444553  -5.6026703
    3  -7.7339742  -5.6026703 -26.7888467
 Calculating analytic Hessian of the SCF energy
 
 Direct stationary perturbation theory relativistic correction:
 
 rels  =       0.047630815778
 relv  =      -0.203505865606
 rel2e =       0.076087045642
 E_rel =      -0.079788004186
 
 Hessian of the SCF Energy
            1           2           3           4           5           6
    1   0.0092677  -0.2061104  -0.0572157  -0.4251793   0.8497356  -0.0791184
    2  -0.2061104  -0.0265241   0.0103585  -0.0733731   0.1376940  -0.0401185
    3  -0.0572157   0.0103585   0.5426365  -0.0301445   0.0959795  -0.1226605
    4  -0.4251793  -0.0733731  -0.0301445   0.1248121   0.1014760  -0.0406133
    5   0.8497356   0.1376940   0.0959795   0.1014760  -0.6506964   0.1809139
    6  -0.0791184  -0.0401185  -0.1226605  -0.0406133   0.1809139   0.5616336
    7   0.0307204   0.0241348  -0.0132005  -0.0447114   0.0008338  -0.0752304
    8   0.0575653   0.0217570   0.0245931   0.1133821  -0.1669039   0.1288981
    9   0.0234760   0.0094643   0.0118339  -0.0796514   0.0640032  -0.2740215
   10  -0.1232390   0.0253423   0.1376836   0.0049146  -0.0041099   0.0276701
   11  -0.0152127  -0.0314383   0.0042280   0.0102449   0.0213229  -0.0134822
   12   0.1149234  -0.0192614  -0.2929248  -0.0069602   0.0100269   0.0029301
   13  -0.1604497   0.0197768  -0.1664818  -0.0160151   0.0523693  -0.0310231
   14  -0.0623245  -0.0447477  -0.0398738  -0.0240661   0.1018981   0.0013909
   15  -0.1140395   0.0009196  -0.2547490   0.0157136  -0.0266824   0.0073936
   16   0.3393814   0.2094069  -0.0041279   0.2594804  -0.1954946   0.0574787
   17  -0.7366355  -0.1284394  -0.1106010  -0.2510394   0.8645523  -0.1675329
   18   0.1105782   0.1019521   0.0510987   0.0332850   0.0694325   0.0743285
   19   0.2390049  -0.0485312   0.0944819   0.1171034  -0.7047414   0.0401665
   20   0.2079285   0.0693476   0.0333283   0.1029955  -0.3883723   0.0507121
   21   0.0287562  -0.0537842   0.0559331   0.0270093  -0.2366573   0.0380268
   22   0.0216923   0.0186325   0.0268499  -0.0549206   0.0146622   0.0680985
   23   0.0466461   0.0123649  -0.0017805   0.0756149  -0.1567326  -0.1247773
   24  -0.0238224  -0.0055965   0.0007805   0.0573781  -0.0912815  -0.2771937
   25   0.0688014   0.0307214   0.0121550   0.0345158  -0.1147311   0.0325715
   26  -0.1415925  -0.0100139  -0.0162321  -0.0552349   0.2372377  -0.0160040
   27  -0.0035378  -0.0039340   0.0080515   0.0239833  -0.0657347  -0.0104370
            7           8           9          10          11          12
    1   0.0307204   0.0575653   0.0234760  -0.1232390  -0.0152127   0.1149234
    2   0.0241348   0.0217570   0.0094643   0.0253423  -0.0314383  -0.0192614
    3  -0.0132005   0.0245931   0.0118339   0.1376836   0.0042280  -0.2929248
    4  -0.0447114   0.1133821  -0.0796514   0.0049146   0.0102449  -0.0069602
    5   0.0008338  -0.1669039   0.0640032  -0.0041099   0.0213229   0.0100269
    6  -0.0752304   0.1288981  -0.2740215   0.0276701  -0.0134822   0.0029301
    7   0.0783536  -0.0716820   0.1006571  -0.0022905  -0.0040461   0.0009005
    8  -0.0716820   0.0564814  -0.1045914  -0.0052847  -0.0049654   0.0007218
    9   0.1006571  -0.1045914   0.2875892  -0.0013471  -0.0004847   0.0006064
   10  -0.0022905  -0.0052847  -0.0013471   0.1148377  -0.0220018  -0.1339776
   11  -0.0040461  -0.0049654  -0.0004847  -0.0220018   0.0226691   0.0146224
   12   0.0009005   0.0007218   0.0006064  -0.1339776   0.0146224   0.3011486
   13   0.0030647   0.0099709   0.0043364   0.0100800  -0.0007701   0.0153989
   14   0.0119574   0.0118982   0.0041849  -0.0024817  -0.0028130  -0.0008390
   15  -0.0020752  -0.0041484  -0.0001949  -0.0200307  -0.0047233  -0.0143086
   16  -0.0317546  -0.0363392  -0.0156526   0.0010754   0.0209873   0.0089808
   17   0.0675986   0.1156477   0.0299678   0.0135374  -0.0099529  -0.0075297
   18  -0.0078583  -0.0092879  -0.0049908   0.0030579   0.0093560   0.0019118
   19  -0.0308614  -0.0475233  -0.0138481  -0.0025113   0.0059646   0.0007585
   20  -0.0287043  -0.0513911  -0.0139589  -0.0047443   0.0035419   0.0034050
   21  -0.0104426  -0.0189218  -0.0033059  -0.0074470  -0.0078271   0.0011496
   22   0.0024615  -0.0092614  -0.0112496  -0.0018736   0.0057340   0.0000017
   23  -0.0095666   0.0004199   0.0083375   0.0019710   0.0058936   0.0016848
   24   0.0096633  -0.0104899  -0.0146205  -0.0012039  -0.0019768   0.0000599
   25  -0.0049823  -0.0108278  -0.0067206  -0.0009934  -0.0009002  -0.0000261
   26   0.0094745   0.0170561   0.0030772  -0.0022284  -0.0042580  -0.0028308
   27  -0.0024139  -0.0067736  -0.0028959  -0.0044052   0.0002877  -0.0005730
           13          14          15          16          17          18
    1  -0.1604497  -0.0623245  -0.1140395   0.3393814  -0.7366355   0.1105782
    2   0.0197768  -0.0447477   0.0009196   0.2094069  -0.1284394   0.1019521
    3  -0.1664818  -0.0398738  -0.2547490  -0.0041279  -0.1106010   0.0510987
    4  -0.0160151  -0.0240661   0.0157136   0.2594804  -0.2510394   0.0332850
    5   0.0523693   0.1018981  -0.0266824  -0.1954946   0.8645523   0.0694325
    6  -0.0310231   0.0013909   0.0073936   0.0574787  -0.1675329   0.0743285
    7   0.0030647   0.0119574  -0.0020752  -0.0317546   0.0675986  -0.0078583
    8   0.0099709   0.0118982  -0.0041484  -0.0363392   0.1156477  -0.0092879
    9   0.0043364   0.0041849  -0.0001949  -0.0156526   0.0299678  -0.0049908
   10   0.0100800  -0.0024817  -0.0200307   0.0010754   0.0135374   0.0030579
   11  -0.0007701  -0.0028130  -0.0047233   0.0209873  -0.0099529   0.0093560
   12   0.0153989  -0.0008390  -0.0143086   0.0089808  -0.0075297   0.0019118
   13   0.1277055  -0.0152331   0.1465427  -0.0096765  -0.0617938   0.0136370
   14  -0.0152331   0.0086937   0.0164513   0.0322274  -0.0881492   0.0044379
   15   0.1465427   0.0164513   0.2560714  -0.0123730   0.0253050   0.0121756
   16  -0.0096765   0.0322274  -0.0123730   0.5045869   1.7902153   0.7111527
   17  -0.0617938  -0.0881492   0.0253050   1.7902153   0.5181749   0.5248121
   18   0.0136370   0.0044379   0.0121756   0.7111527   0.5248121  -0.6510253
   19   0.0415865   0.0516264  -0.0106791  -0.2927091   0.8248574  -0.2880032
   20   0.0129732   0.0263760  -0.0089400   0.0317413   0.5727801   0.0617155
   21   0.0141123   0.0169390  -0.0064912  -0.2807518   0.3597721  -0.0778953
   22   0.0005615   0.0007288  -0.0019968  -0.0153949   0.0259333   0.0018142
   23  -0.0015094   0.0013218  -0.0032542  -0.0220820   0.0481930   0.0107516
   24  -0.0003756  -0.0031326   0.0009612   0.0096862  -0.0229591   0.0053494
   25   0.0031431   0.0075652  -0.0010619  -0.7549891  -1.6726733  -0.5776636
   26  -0.0157839  -0.0144779   0.0050725  -1.8306625  -1.8928066  -0.7731699
   27   0.0038531   0.0004413  -0.0008582  -0.4743929  -0.6312343   0.5890474
           19          20          21          22          23          24
    1   0.2390049   0.2079285   0.0287562   0.0216923   0.0466461  -0.0238224
    2  -0.0485312   0.0693476  -0.0537842   0.0186325   0.0123649  -0.0055965
    3   0.0944819   0.0333283   0.0559331   0.0268499  -0.0017805   0.0007805
    4   0.1171034   0.1029955   0.0270093  -0.0549206   0.0756149   0.0573781
    5  -0.7047414  -0.3883723  -0.2366573   0.0146622  -0.1567326  -0.0912815
    6   0.0401665   0.0507121   0.0380268   0.0680985  -0.1247773  -0.2771937
    7  -0.0308614  -0.0287043  -0.0104426   0.0024615  -0.0095666   0.0096633
    8  -0.0475233  -0.0513911  -0.0189218  -0.0092614   0.0004199  -0.0104899
    9  -0.0138481  -0.0139589  -0.0033059  -0.0112496   0.0083375  -0.0146205
   10  -0.0025113  -0.0047443  -0.0074470  -0.0018736   0.0019710  -0.0012039
   11   0.0059646   0.0035419  -0.0078271   0.0057340   0.0058936  -0.0019768
   12   0.0007585   0.0034050   0.0011496   0.0000017   0.0016848   0.0000599
   13   0.0415865   0.0129732   0.0141123   0.0005615  -0.0015094  -0.0003756
   14   0.0516264   0.0263760   0.0169390   0.0007288   0.0013218  -0.0031326
   15  -0.0106791  -0.0089400  -0.0064912  -0.0019968  -0.0032542   0.0009612
   16  -0.2927091   0.0317413  -0.2807518  -0.0153949  -0.0220820   0.0096862
   17   0.8248574   0.5727801   0.3597721   0.0259333   0.0481930  -0.0229591
   18  -0.2880032   0.0617155  -0.0778953   0.0018142   0.0107516   0.0053494
   19  -0.0398719  -0.4373379   0.3397256  -0.0188542  -0.0359090   0.0175756
   20  -0.4373379  -0.0305917  -0.2751264  -0.0086947  -0.0215771   0.0113474
   21   0.3397256  -0.2751264  -0.0422410  -0.0061316  -0.0135981   0.0046240
   22  -0.0188542  -0.0086947  -0.0061316   0.0647590  -0.0548514  -0.0715916
   23  -0.0359090  -0.0215771  -0.0135981  -0.0548514   0.0936810   0.1296175
   24   0.0175756   0.0113474   0.0046240  -0.0715916   0.1296175   0.2779807
   25  -0.0128869   0.1238427  -0.1048303   0.0015690  -0.0003136   0.0026903
   26   0.3915944  -0.1801135   0.2292037   0.0071167   0.0164354  -0.0055285
   27  -0.1801776   0.1375170   0.0301999  -0.0057947  -0.0069814   0.0020584
           25          26          27
    1   0.0688014  -0.1415925  -0.0035378
    2   0.0307214  -0.0100139  -0.0039340
    3   0.0121550  -0.0162321   0.0080515
    4   0.0345158  -0.0552349   0.0239833
    5  -0.1147311   0.2372377  -0.0657347
    6   0.0325715  -0.0160040  -0.0104370
    7  -0.0049823   0.0094745  -0.0024139
    8  -0.0108278   0.0170561  -0.0067736
    9  -0.0067206   0.0030772  -0.0028959
   10  -0.0009934  -0.0022284  -0.0044052
   11  -0.0009002  -0.0042580   0.0002877
   12  -0.0000261  -0.0028308  -0.0005730
   13   0.0031431  -0.0157839   0.0038531
   14   0.0075652  -0.0144779   0.0004413
   15  -0.0010619   0.0050725  -0.0008582
   16  -0.7549891  -1.8306625  -0.4743929
   17  -1.6726733  -1.8928066  -0.6312343
   18  -0.5776636  -0.7731699   0.5890474
   19  -0.0128869   0.3915944  -0.1801776
   20   0.1238427  -0.1801135   0.1375170
   21  -0.1048303   0.2292037   0.0301999
   22   0.0015690   0.0071167  -0.0057947
   23  -0.0003136   0.0164354  -0.0069814
   24   0.0026903  -0.0055285   0.0020584
   25   0.6658224   1.6373166   0.6428857
   26   1.6373166   1.8309407   0.5764119
   27   0.6428857   0.5764119  -0.6145932
 **********************************************************************
 **                                                                  **
 **                       VIBRATIONAL ANALYSIS                       **
 **                       --------------------                       **
 **                                                                  **
 **        VIBRATIONAL FREQUENCIES (CM**-1) AND NORMAL MODES         **
 **     FORCE CONSTANTS (mDYN/ANGSTROM) AND REDUCED MASSES (AMU)     **
 **                  INFRARED INTENSITIES (KM/MOL)                   **
 **                                                                  **
 **********************************************************************
 

 Mode:                 1                      2                      3
 Frequency:     -5024.82               -4522.02               -3838.67
 Force Cnst:     16.1348                16.4515                10.1790
 Red. Mass:       1.0846                 1.3655                 1.1724
 IR Active:          YES                    YES                    YES
 IR Intens:      396.499               5791.900                149.038
 Raman Active:       YES                    YES                    YES
               X      Y      Z        X      Y      Z        X      Y      Z
 C         -0.006  0.007  0.008   -0.060 -0.009 -0.020    0.007 -0.017  0.004
 C         -0.009  0.018  0.011   -0.024  0.116 -0.016    0.021  0.013  0.016
 H          0.013  0.034  0.017    0.064  0.134  0.015    0.015  0.019  0.019
 H          0.012  0.022  0.014   -0.003 -0.022 -0.010    0.001 -0.012  0.004
 H         -0.023 -0.023  0.022   -0.076 -0.107  0.013   -0.002 -0.047  0.006
 O          0.018 -0.022 -0.062    0.002 -0.099  0.026   -0.064  0.067 -0.040
 H          0.273  0.032 -0.169    0.661  0.515  0.146   -0.003 -0.418  0.036
 H         -0.004 -0.001  0.013    0.038  0.090 -0.027    0.028 -0.001  0.026
 H         -0.382  0.001  0.861    0.291 -0.312 -0.123    0.640 -0.551  0.307
 TransDip   0.098 -0.609 -0.164    1.236 -1.958 -0.760   -0.385  0.059  0.037

 Mode:                 4                      5                      6
 Frequency:     -2787.08               -1292.14                -645.19
 Force Cnst:      5.2130                 4.2231                 0.3263
 Red. Mass:       1.1390                 4.2930                 1.3304
 IR Active:          YES                    YES                    YES
 IR Intens:      239.491               2086.107                 26.622
 Raman Active:       YES                    YES                    YES
               X      Y      Z        X      Y      Z        X      Y      Z
 C         -0.004  0.002  0.030   -0.242 -0.240  0.023    0.052 -0.004 -0.090
 C         -0.009  0.019 -0.025   -0.160  0.113 -0.009   -0.047 -0.052 -0.058
 H          0.057  0.058 -0.030    0.138  0.337  0.011    0.244  0.514  0.065
 H          0.061  0.030  0.056   -0.156 -0.233  0.035    0.357  0.414  0.054
 H         -0.045 -0.017  0.073   -0.109 -0.414  0.003   -0.314 -0.322  0.162
 O          0.034 -0.031 -0.072    0.304  0.114 -0.001   -0.017  0.023  0.082
 H         -0.426  0.193  0.846   -0.162 -0.397 -0.201   -0.013 -0.024  0.026
 H         -0.028  0.022 -0.031    0.060  0.175  0.010   -0.056 -0.309  0.086
 H         -0.016 -0.057  0.167    0.185  0.226 -0.017   -0.013  0.027  0.079
 TransDip   0.142 -0.278 -0.385    1.425  0.274  0.186    0.039  0.115  0.112

 Mode:                 7                      8                      9
 Frequency:       454.68                 758.36                 792.51
 Force Cnst:      0.1584                 0.4502                 0.4587
 Red. Mass:       1.3007                 1.3286                 1.2395
 IR Active:          YES                    YES                    YES
 IR Intens:      153.804                 15.579                 12.846
 Raman Active:       YES                    YES                    YES
               X      Y      Z        X      Y      Z        X      Y      Z
 C          0.059 -0.095  0.041   -0.015  0.145  0.023    0.059 -0.011 -0.031
 C         -0.102 -0.037 -0.001    0.001 -0.079  0.007   -0.087 -0.049  0.076
 H          0.308  0.423  0.009    0.566  0.338 -0.071    0.089 -0.285 -0.108
 H         -0.036  0.170 -0.053   -0.425 -0.383 -0.154    0.192  0.288  0.020
 H          0.457  0.612 -0.228    0.100 -0.352 -0.072   -0.070 -0.284  0.088
 O         -0.019  0.010 -0.010   -0.003 -0.027  0.003   -0.007  0.013 -0.016
 H          0.038  0.117 -0.017   -0.030 -0.084 -0.009    0.026  0.042 -0.009
 H          0.030  0.118 -0.028    0.021  0.149 -0.105    0.207  0.744 -0.256
 H          0.031 -0.030  0.010   -0.011 -0.020 -0.004    0.004  0.004 -0.025
 TransDip  -0.312 -0.056 -0.239    0.101 -0.067 -0.037    0.016 -0.085 -0.076

 Mode:                10                     11                     12
 Frequency:       815.24                 901.31                1155.36
 Force Cnst:      0.4376                 0.7884                 1.0331
 Red. Mass:       1.1174                 1.6473                 1.3136
 IR Active:          YES                    YES                    YES
 IR Intens:        5.460                 39.630                  2.451
 Raman Active:       YES                    YES                    YES
               X      Y      Z        X      Y      Z        X      Y      Z
 C         -0.061  0.043 -0.016   -0.164 -0.003  0.001    0.021  0.020  0.107
 C          0.027 -0.037 -0.009    0.159  0.023  0.007   -0.023  0.009 -0.119
 H         -0.074  0.264  0.167    0.391 -0.093 -0.146   -0.421  0.103  0.098
 H          0.198 -0.200  0.146   -0.150  0.783 -0.047   -0.245  0.367 -0.064
 H         -0.328  0.391  0.157   -0.008  0.168 -0.102    0.354 -0.397 -0.092
 O          0.001 -0.037 -0.011   -0.000 -0.061  0.021   -0.009 -0.020  0.008
 H         -0.048 -0.124 -0.043   -0.093 -0.222 -0.031   -0.018 -0.055 -0.011
 H          0.660  0.193  0.088   -0.024  0.103 -0.103    0.523 -0.031  0.080
 H         -0.021 -0.014 -0.034   -0.051 -0.015 -0.002   -0.020 -0.009 -0.000
 TransDip   0.047  0.042 -0.040    0.098  0.176 -0.006    0.002 -0.049 -0.008

 Mode:                13                     14                     15
 Frequency:      1366.68                1437.25                1516.84
 Force Cnst:      1.8112                 1.3606                 2.0074
 Red. Mass:       1.6458                 1.1179                 1.4809
 IR Active:          YES                    YES                    YES
 IR Intens:       26.556                 31.905                  8.118
 Raman Active:       YES                    YES                    YES
               X      Y      Z        X      Y      Z        X      Y      Z
 C          0.041  0.039 -0.023   -0.076  0.041 -0.008    0.108 -0.017 -0.006
 C         -0.017  0.167  0.014   -0.036 -0.015  0.008   -0.094  0.135  0.009
 H         -0.100  0.264  0.067    0.301 -0.309 -0.249    0.350 -0.280 -0.366
 H          0.432 -0.138  0.176    0.461 -0.095  0.275   -0.303  0.035 -0.232
 H          0.303 -0.105 -0.176    0.361 -0.124 -0.278   -0.265  0.128  0.237
 O         -0.018 -0.136  0.017   -0.007  0.025 -0.001   -0.007 -0.053  0.003
 H         -0.215 -0.530 -0.088    0.023  0.086  0.018   -0.087 -0.230 -0.026
 H         -0.266  0.241 -0.076    0.293 -0.270  0.235    0.316 -0.219  0.343
 H         -0.142 -0.018 -0.070    0.015  0.005  0.014   -0.071  0.004 -0.043
 TransDip  -0.155  0.007 -0.056    0.169 -0.064  0.013   -0.082  0.031 -0.027

 Mode:                16                     17                     18
 Frequency:      3123.81                3197.50                3286.93
 Force Cnst:      6.0363                 6.3179                 7.1101
 Red. Mass:       1.0499                 1.0488                 1.1170
 IR Active:          YES                    YES                    YES
 IR Intens:       27.442                 34.028                 23.730
 Raman Active:       YES                    YES                    YES
               X      Y      Z        X      Y      Z        X      Y      Z
 C         -0.056  0.009 -0.025   -0.013 -0.002 -0.007    0.011 -0.005 -0.092
 C          0.003 -0.003  0.000    0.037 -0.045 -0.008    0.000  0.005  0.036
 H          0.019 -0.025  0.052   -0.239  0.231 -0.563   -0.088  0.100 -0.213
 H          0.218 -0.042 -0.456    0.002 -0.002 -0.004   -0.384  0.041  0.709
 H          0.461  0.022  0.720    0.044 -0.014  0.074    0.261  0.016  0.370
 O         -0.004  0.001  0.002    0.004 -0.001  0.002    0.000 -0.001  0.001
 H         -0.016 -0.001 -0.014    0.023  0.044 -0.001    0.006 -0.002  0.006
 H          0.007 -0.041 -0.052   -0.200  0.335  0.637    0.071 -0.124 -0.224
 H          0.001 -0.001  0.006    0.019 -0.014  0.010   -0.000 -0.001  0.000
 TransDip  -0.007 -0.107 -0.129   -0.172  0.017 -0.071   -0.110 -0.005 -0.110

 Mode:                19                     20                     21
 Frequency:      3307.65                4744.38                9468.79
 Force Cnst:      7.2066                14.0961                56.4836
 Red. Mass:       1.1180                 1.0629                 1.0693
 IR Active:          YES                    YES                    YES
 IR Intens:        6.220                477.864                 89.812
 Raman Active:       YES                    YES                    YES
               X      Y      Z        X      Y      Z        X      Y      Z
 C          0.006 -0.001 -0.036   -0.005 -0.013  0.006   -0.001  0.000  0.000
 C         -0.007 -0.002 -0.093    0.001 -0.020  0.001   -0.000  0.000  0.000
 H          0.267 -0.269  0.602    0.000  0.011  0.002   -0.000 -0.001 -0.001
 H         -0.157  0.017  0.277    0.002 -0.005 -0.005   -0.001 -0.001 -0.001
 H          0.106  0.007  0.139    0.024  0.012  0.003   -0.001  0.001  0.000
 O         -0.002  0.000  0.001   -0.020  0.047 -0.024   -0.039 -0.048 -0.016
 H         -0.004 -0.004 -0.003    0.611 -0.508  0.481    0.079 -0.036  0.047
 H         -0.171  0.273  0.497   -0.007 -0.009  0.013    0.001  0.002 -0.001
 H         -0.003  0.002  0.003   -0.268  0.150 -0.195    0.560  0.793  0.208
 TransDip   0.055 -0.048 -0.034   -0.516 -0.289 -0.374   -0.085 -0.262  0.127

 STANDARD THERMODYNAMIC QUANTITIES AT   298.15 K  AND     1.00 ATM

   This Molecule has  6 Imaginary Frequencies
   Zero point vibrational energy:       51.932 kcal/mol

   Atom    1 Element C  Has Mass   12.00000
   Atom    2 Element C  Has Mass   12.00000
   Atom    3 Element H  Has Mass    1.00783
   Atom    4 Element H  Has Mass    1.00783
   Atom    5 Element H  Has Mass    1.00783
   Atom    6 Element O  Has Mass   15.99491
   Atom    7 Element H  Has Mass    1.00783
   Atom    8 Element H  Has Mass    1.00783
   Atom    9 Element H  Has Mass    1.00783
   Molecular Mass:    46.041890 amu
   Principal axes and moments of inertia in amu*Bohr^2:
                             1           2           3
    Eigenvalues --       80.39970    87.94576   142.72008
          X               0.99803    -0.05791     0.02394
          Y               0.05715     0.99787     0.03145
          Z              -0.02571    -0.03002     0.99922
   Rotational Symmetry Number is   1
   The Molecule is an Asymmetric Top
   Translational Enthalpy:        0.889 kcal/mol
   Rotational Enthalpy:           0.889 kcal/mol
   Vibrational Enthalpy:         52.308 kcal/mol
   gas constant (RT):             0.592 kcal/mol
   Translational Entropy:        37.406  cal/mol.K
   Rotational Entropy:           21.539  cal/mol.K
   Vibrational Entropy:           1.670  cal/mol.K

   Total Enthalpy:               54.678 kcal/mol
   Total Entropy:                60.615  cal/mol.K
Archival summary:
1\1\node018\FREQ\ProcedureUnspecified\6-31G*\126\guest94\MonMar918:26:392020MonMar918:26:392020\0\\#,FREQ,ProcedureUnspecified,6-31G*,\\0,1\O\H,1,0.684171\H,2,0.74,1,76.2048\C,1,1.43337,2,153.679,3,-108.801,0\H,4,1.08247,1,117.455,2,25.552,0\H,4,1.08247,1,117.456,2,-118.214,0\C,1,1.43337,2,132.611,3,9.85221,0\H,7,1.08247,1,117.455,2,97.7191,0\H,7,1.08247,1,117.456,2,-46.0468,0\\\@

 Total job time:  14.80s(wall), 33.31s(cpu) 
 Mon Mar  9 18:26:39 2020

        *************************************************************
        *                                                           *
        *  Thank you very much for using Q-Chem.  Have a nice day.  *
        *                                                           *
        *************************************************************


