[Molden Format]
[Geometries] (XYZ)
16

C       -1.059909      -1.517238       0.052691
C       -1.829498      -0.594187      -0.539857
C       -2.012674       0.793571      -0.089868
C       -1.097540       1.540847       0.541127
H       -2.400519      -0.882442      -1.423438
H       -0.513588      -1.303954       0.968128
H       -0.966685      -2.521285      -0.351445
H       -1.321104       2.556154       0.856758
H       -0.094651       1.173853       0.744840
H       -2.981516       1.238092      -0.320817
C        3.018420      -0.332595       0.534388
C        2.482714       0.170110      -0.576438
H        3.891666       0.112702       1.005636
H        2.608498      -1.215827       1.019113
H        1.608118      -0.276199      -1.043622
H        2.895275       1.051231      -1.062768
16

C       -0.844553      -1.565453       0.065630
C       -1.686304      -0.643697      -0.428670
C       -1.836004       0.763228      -0.043478
C       -0.908829       1.576286       0.483933
H       -2.354681      -0.961054      -1.231763
H       -0.350483      -1.456912       1.027544
H       -0.743555      -2.525930      -0.433065
H       -1.131975       2.633168       0.610905
H        0.055662       1.252131       0.863850
H       -2.806401       1.201584      -0.280696
C        2.747025      -0.378865       0.544405
C        2.287067       0.218966      -0.555795
H        3.523109       0.101619       1.138483
H        2.474022      -1.381833       0.863502
H        1.507138      -0.210679      -1.178666
H        2.761337       1.126583      -0.922829
16

C       -0.700778      -1.586699       0.052396
C       -1.592789      -0.653899      -0.359467
C       -1.712567       0.751392      -0.046565
C       -0.759726       1.605983       0.381849
H       -2.355228      -1.014184      -1.055606
H       -0.336324      -1.635182       1.075510
H       -0.572743      -2.476776      -0.560258
H       -0.961782       2.676696       0.372065
H        0.122468       1.345896       0.959692
H       -2.699459       1.179127      -0.227920
C        2.474122      -0.398841       0.547824
C        2.089325       0.284840      -0.534696
H        3.161380       0.088108       1.243431
H        2.379428      -1.464229       0.740476
H        1.398583      -0.134428      -1.263079
H        2.652424       1.162026      -0.847610
16

C       -0.019586      -1.471096       0.115110
C       -1.275071      -0.702385      -0.142484
C       -1.322405       0.627766      -0.127007
C       -0.089307       1.453528      -0.000570
H       -2.174565      -1.261791      -0.394473
H       -0.079724      -2.107900       1.009643
H        0.250479      -2.075046      -0.757466
H       -0.110414       2.404915      -0.540548
H        0.149819       1.679016       1.052626
H       -2.280168       1.135680      -0.214251
C        1.283032      -0.570153       0.517292
C        1.260861       0.659705      -0.361453
H        1.328551      -0.264105       1.567805
H        2.036173      -1.351889       0.367289
H        1.206009       0.387128      -1.424301
H        2.059338       1.387123      -0.198690
16

C        0.018468      -1.505106       0.071568
C       -1.254772      -0.702834      -0.048582
C       -1.285462       0.633333      -0.085430
C       -0.048009       1.496988      -0.044066
H       -2.188019      -1.262697      -0.104884
H       -0.121593      -2.316432       0.799572
H        0.226662      -2.006336      -0.887554
H       -0.137346       2.309933      -0.778244
H        0.019548       1.994894       0.936681
H       -2.244726       1.146089      -0.151793
C        1.215907      -0.631805       0.479561
C        1.229547       0.684801      -0.310095
H        1.148086      -0.405550       1.552894
H        2.153161      -1.182749       0.332157
H        1.295894       0.458487      -1.383669
H        2.116007       1.280032      -0.058114
[GEOCONV]
energy
0.0
4.82632880143
24.9526715053
-31.8661850557
-45.7547594534
max-force
2.97529353585e-05
0.00161562208626
0.00477972563381
0.00585985581822
4.30845214786e-05
max-step
1000.0
1000.0
1000.0
1000.0
1000.0
