[Molden Format]
[Geometries] (XYZ)
16

C       -1.059909      -1.517238       0.052691
C       -1.829498      -0.594187      -0.539857
C       -2.012674       0.793571      -0.089868
C       -1.097540       1.540847       0.541127
H       -2.400519      -0.882442      -1.423438
H       -0.513588      -1.303954       0.968128
H       -0.966685      -2.521285      -0.351445
H       -1.321104       2.556154       0.856758
H       -0.094651       1.173853       0.744840
H       -2.981516       1.238092      -0.320817
C        3.018420      -0.332595       0.534388
C        2.482714       0.170110      -0.576438
H        3.891666       0.112702       1.005636
H        2.608498      -1.215827       1.019113
H        1.608118      -0.276199      -1.043622
H        2.895275       1.051231      -1.062768
16

C       -0.811713      -1.561565       0.072101
C       -1.672202      -0.655308      -0.409355
C       -1.821678       0.755472      -0.035732
C       -0.890886       1.570809       0.483010
H       -2.353883      -0.979654      -1.197786
H       -0.255687      -1.425802       0.995440
H       -0.726602      -2.532724      -0.408761
H       -1.117305       2.627790       0.601208
H        0.079983       1.240027       0.838303
H       -2.791321       1.191567      -0.279088
C        2.690758      -0.384352       0.534619
C        2.259746       0.222122      -0.566664
H        3.427305       0.108609       1.166121
H        2.407606      -1.393896       0.820338
H        1.514183      -0.205687      -1.230870
H        2.707134       1.163045      -0.880002
16

C       -0.673164      -1.584713       0.058414
C       -1.578127      -0.667813      -0.345283
C       -1.691799       0.756785      -0.037012
C       -0.732624       1.604329       0.382854
H       -2.343405      -1.020722      -1.041529
H       -0.243477      -1.613649       1.054876
H       -0.565959      -2.486127      -0.543008
H       -0.938111       2.673613       0.358561
H        0.152541       1.328744       0.942878
H       -2.673143       1.188734      -0.237533
C        2.410582      -0.405660       0.545313
C        2.058721       0.279800      -0.545267
H        3.052733       0.094704       1.272053
H        2.306732      -1.474358       0.709442
H        1.403433      -0.130779      -1.309238
H        2.598509       1.186247      -0.811528
16

C       -0.527779      -1.589579       0.063482
C       -1.488125      -0.671654      -0.285753
C       -1.579801       0.733064      -0.051582
C       -0.579944       1.599533       0.284834
H       -2.318448      -1.075325      -0.872718
H       -0.255400      -1.779082       1.098152
H       -0.382770      -2.417637      -0.631169
H       -0.746593       2.667314       0.131310
H        0.187671       1.417460       1.027419
H       -2.566306       1.170799      -0.205667
C        2.140210      -0.430733       0.532130
C        1.858246       0.363462      -0.516805
H        2.682752       0.053462       1.350716
H        2.242714      -1.510278       0.583292
H        1.305322      -0.024374      -1.370956
H        2.487601       1.229027      -0.715770
16

C       -0.140521      -1.508658       0.135514
C       -1.299043      -0.701731      -0.224059
C       -1.366555       0.627991      -0.165852
C       -0.206753       1.481526       0.079796
H       -2.163004      -1.234129      -0.617848
H       -0.098576      -1.939744       1.139632
H        0.124350      -2.209972      -0.654228
H       -0.265609       2.505157      -0.300097
H        0.256770       1.501768       1.073052
H       -2.334025       1.099517      -0.318439
C        1.462018      -0.511465       0.566013
C        1.397438       0.593880      -0.420192
H        1.613685      -0.077342       1.560681
H        1.975550      -1.472919       0.469893
H        1.168766       0.303718      -1.450998
H        2.147450       1.391243      -0.368938
16

C       -0.009948      -1.485051       0.142916
C       -1.257198      -0.707251      -0.161810
C       -1.306517       0.615863      -0.164365
C       -0.075452       1.462193       0.020600
H       -2.137166      -1.275969      -0.459379
H       -0.106441      -2.119343       1.033344
H        0.245840      -2.118866      -0.710861
H       -0.112342       2.439075      -0.470185
H        0.103551       1.657528       1.091751
H       -2.259226       1.119674      -0.275072
C        1.265701      -0.570349       0.516451
C        1.259483       0.674984      -0.355029
H        1.285656      -0.253523       1.568744
H        2.046961      -1.322064       0.353127
H        1.210976       0.401904      -1.419757
H        2.080804       1.377135      -0.181829
16

C        0.018468      -1.505106       0.071568
C       -1.254772      -0.702834      -0.048582
C       -1.285462       0.633333      -0.085430
C       -0.048009       1.496988      -0.044066
H       -2.188019      -1.262697      -0.104884
H       -0.121593      -2.316432       0.799572
H        0.226662      -2.006336      -0.887554
H       -0.137346       2.309933      -0.778244
H        0.019548       1.994894       0.936681
H       -2.244726       1.146089      -0.151793
C        1.215907      -0.631805       0.479561
C        1.229547       0.684801      -0.310095
H        1.148086      -0.405550       1.552894
H        2.153161      -1.182749       0.332157
H        1.295894       0.458487      -1.383669
H        2.116007       1.280032      -0.058114
[GEOCONV]
energy
0.0
3.75640316887
21.9520667093
54.9168930468
23.6411871293
-35.5499567321
-45.7547594534
max-force
2.97529353585e-05
0.00169570595626
0.0029778621233
0.0062691683495
0.0130773188817
0.0058876186524
4.30845214786e-05
max-step
1000.0
1000.0
1000.0
1000.0
1000.0
1000.0
1000.0
