[Molden Format]
[Geometries] (XYZ)
16

C       -1.059909      -1.517238       0.052691
C       -1.829498      -0.594187      -0.539857
C       -2.012674       0.793571      -0.089868
C       -1.097540       1.540847       0.541127
H       -2.400519      -0.882442      -1.423438
H       -0.513588      -1.303954       0.968128
H       -0.966685      -2.521285      -0.351445
H       -1.321104       2.556154       0.856758
H       -0.094651       1.173853       0.744840
H       -2.981516       1.238092      -0.320817
C        3.018420      -0.332595       0.534388
C        2.482714       0.170110      -0.576438
H        3.891666       0.112702       1.005636
H        2.608498      -1.215827       1.019113
H        1.608118      -0.276199      -1.043622
H        2.895275       1.051231      -1.062768
16

C       -0.786918      -1.559905       0.074479
C       -1.662907      -0.662533      -0.396859
C       -1.810702       0.751412      -0.032540
C       -0.878951       1.569899       0.481174
H       -2.355062      -0.995592      -1.171883
H       -0.178524      -1.397624       0.959095
H       -0.721234      -2.542596      -0.385484
H       -1.107450       2.625878       0.601769
H        0.098954       1.234914       0.811936
H       -2.779173       1.185525      -0.283888
C        2.640721      -0.388939       0.535288
C        2.245297       0.228058      -0.579584
H        3.332098       0.107724       1.212806
H        2.352070      -1.405417       0.788729
H        1.543683      -0.208723      -1.284690
H        2.664088       1.194848      -0.850365
16

C       -0.648630      -1.599306       0.082811
C       -1.550675      -0.680707      -0.323927
C       -1.659326       0.752910      -0.042434
C       -0.712025       1.613152       0.391423
H       -2.305867      -1.029022      -1.033084
H       -0.176787      -1.619972       1.058702
H       -0.569383      -2.511585      -0.507202
H       -0.926871       2.678825       0.332055
H        0.161742       1.342259       0.968772
H       -2.625704       1.184773      -0.307732
C        2.339882      -0.413497       0.535420
C        2.033978       0.295390      -0.553264
H        2.914803       0.084549       1.317051
H        2.246457      -1.489098       0.646780
H        1.438168      -0.103767      -1.369921
H        2.540093       1.237898      -0.751842
16

C       -0.509788      -1.620726       0.125963
C       -1.434567      -0.693395      -0.262360
C       -1.504466       0.737347      -0.062555
C       -0.528021       1.607321       0.316173
H       -2.240628      -1.073334      -0.896706
H       -0.195126      -1.798367       1.147251
H       -0.409388      -2.477673      -0.543772
H       -0.701710       2.668308       0.132913
H        0.187415       1.432127       1.105166
H       -2.464858       1.178907      -0.332378
C        2.044790      -0.439218       0.493162
C        1.809775       0.388047      -0.539994
H        2.497282       0.029333       1.372352
H        2.163309      -1.516242       0.479738
H        1.336359       0.023280      -1.449526
H        2.378729       1.307852      -0.657808
16

C       -0.301544      -1.562857       0.156043
C       -1.337030      -0.669755      -0.219828
C       -1.374423       0.694239      -0.075752
C       -0.259265       1.520284       0.227285
H       -2.176311      -1.114229      -0.760348
H       -0.116824      -1.863264       1.182857
H       -0.095810      -2.334473      -0.589260
H       -0.314997       2.583673      -0.012310
H        0.334464       1.370713       1.121623
H       -2.330258       1.184996      -0.258546
C        1.679031      -0.478498       0.479052
C        1.498214       0.475134      -0.547011
H        2.016997      -0.025875       1.416705
H        1.946149      -1.527504       0.414031
H        1.085604       0.137456      -1.496684
H        2.149006       1.346305      -0.624036
16

C       -0.155137      -1.503105       0.160004
C       -1.315032      -0.676654      -0.178480
C       -1.355481       0.659176      -0.101741
C       -0.155414       1.469046       0.117053
H       -2.186711      -1.188197      -0.584486
H       -0.049996      -1.884892       1.177482
H        0.078618      -2.235803      -0.614324
H       -0.175596       2.509692      -0.219288
H        0.352381       1.412049       1.080763
H       -2.304331       1.164988      -0.255502
C        1.467255      -0.533189       0.480618
C        1.355145       0.562767      -0.505274
H        1.696890      -0.107542       1.463877
H        1.905758      -1.516927       0.353549
H        1.068571       0.267972      -1.515785
H        2.072490       1.387368      -0.484635
16

C       -0.126601      -1.492228       0.175336
C       -1.292561      -0.680582      -0.176828
C       -1.333830       0.648940      -0.119856
C       -0.129489       1.452701       0.116121
H       -2.162893      -1.199111      -0.572518
H       -0.048938      -1.892037       1.193143
H        0.108292      -2.215612      -0.598078
H       -0.145839       2.482373      -0.241390
H        0.333449       1.420040       1.110321
H       -2.278270       1.158813      -0.307235
C        1.419807      -0.549335       0.474984
C        1.314858       0.596134      -0.488911
H        1.626180      -0.141585       1.463525
H        1.911318      -1.519382       0.316226
H        1.050546       0.322851      -1.518694
H        2.044108       1.408764      -0.442332
16

C        0.006612      -1.489942       0.177251
C       -1.249576      -0.714878      -0.163003
C       -1.309342       0.622884      -0.195838
C       -0.083652       1.462711       0.046737
H       -2.122658      -1.296560      -0.463738
H       -0.114817      -2.093270       1.084299
H        0.250342      -2.169736      -0.656694
H       -0.123187       2.448564      -0.427134
H        0.064509       1.637849       1.120381
H       -2.254888       1.123498      -0.419184
C        1.273339      -0.585949       0.501100
C        1.236303       0.687567      -0.349259
H        1.307178      -0.289368       1.558984
H        2.092459      -1.276963       0.298980
H        1.187642       0.435484      -1.412679
H        2.070324       1.383334      -0.168622
16

C        0.018468      -1.505106       0.071568
C       -1.254772      -0.702834      -0.048582
C       -1.285462       0.633333      -0.085430
C       -0.048009       1.496988      -0.044066
H       -2.188019      -1.262697      -0.104884
H       -0.121593      -2.316432       0.799572
H        0.226662      -2.006336      -0.887554
H       -0.137346       2.309933      -0.778244
H        0.019548       1.994894       0.936681
H       -2.244726       1.146089      -0.151793
C        1.215907      -0.631805       0.479561
C        1.229547       0.684801      -0.310095
H        1.148086      -0.405550       1.552894
H        2.153161      -1.182749       0.332157
H        1.295894       0.458487      -1.383669
H        2.116007       1.280032      -0.058114
[GEOCONV]
energy
0.0
2.98281298796
20.1237154196
48.1800492071
61.9920415994
23.3462194582
8.91184308453
-39.2961108037
-45.7547594534
max-force
2.97529353585e-05
0.000884560166214
0.00240385569407
0.00337850159669
0.00574142373256
0.00783341417126
0.00774570692198
0.00450048250205
4.30845214786e-05
max-step
1000.0
1000.0
1000.0
1000.0
1000.0
1000.0
1000.0
1000.0
1000.0
