[Molden Format]
[Geometries] (XYZ)
16

C       -1.059909      -1.517238       0.052691
C       -1.829498      -0.594187      -0.539857
C       -2.012674       0.793571      -0.089868
C       -1.097540       1.540847       0.541127
H       -2.400519      -0.882442      -1.423438
H       -0.513588      -1.303954       0.968128
H       -0.966685      -2.521285      -0.351445
H       -1.321104       2.556154       0.856758
H       -0.094651       1.173853       0.744840
H       -2.981516       1.238092      -0.320817
C        3.018420      -0.332595       0.534388
C        2.482714       0.170110      -0.576438
H        3.891666       0.112702       1.005636
H        2.608498      -1.215827       1.019113
H        1.608118      -0.276199      -1.043622
H        2.895275       1.051231      -1.062768
16

C       -0.791391      -1.560980       0.073323
C       -1.665346      -0.660130      -0.400406
C       -1.813081       0.753605      -0.032218
C       -0.881128       1.569691       0.481417
H       -2.355874      -0.990375      -1.178562
H       -0.196966      -1.406924       0.969095
H       -0.718971      -2.539802      -0.394161
H       -1.108599       2.625826       0.602518
H        0.094443       1.234444       0.818057
H       -2.782749       1.188391      -0.278029
C        2.654411      -0.386709       0.535242
C        2.246146       0.224951      -0.576878
H        3.359538       0.111884       1.197297
H        2.367762      -1.400978       0.800184
H        1.529049      -0.209845      -1.267571
H        2.673645       1.183818      -0.862930
16

C       -0.650560      -1.589118       0.073080
C       -1.554001      -0.674494      -0.329243
C       -1.665542       0.754174      -0.038822
C       -0.720221       1.606990       0.381395
H       -2.314575      -1.025083      -1.031347
H       -0.194967      -1.615163       1.056687
H       -0.562216      -2.496859      -0.522258
H       -0.933860       2.673205       0.330430
H        0.155974       1.335461       0.954600
H       -2.638489       1.184240      -0.279178
C        2.355798      -0.412308       0.541933
C        2.036000       0.292310      -0.546661
H        2.956064       0.082571       1.306645
H        2.259716      -1.486685       0.664394
H        1.424639      -0.112014      -1.349371
H        2.557296       1.221531      -0.767653
16

C       -0.510204      -1.607991       0.091426
C       -1.458496      -0.688457      -0.266893
C       -1.536613       0.739611      -0.052267
C       -0.550858       1.608515       0.303128
H       -2.281792      -1.077536      -0.873561
H       -0.197428      -1.800185       1.111007
H       -0.387025      -2.440889      -0.604042
H       -0.725216       2.670341       0.123827
H        0.195887       1.431939       1.061990
H       -2.511834       1.178651      -0.266447
C        2.080288      -0.437389       0.518586
C        1.827597       0.371228      -0.529701
H        2.566511       0.052909       1.368415
H        2.196025      -1.515130       0.541134
H        1.305064      -0.001223      -1.408800
H        2.429517       1.263245      -0.692879
16

C       -0.323686      -1.560614       0.113367
C       -1.382126      -0.672962      -0.219079
C       -1.438068       0.695229      -0.074671
C       -0.341193       1.543954       0.196817
H       -2.251534      -1.132100      -0.695251
H       -0.155092      -1.877036       1.140120
H       -0.139602      -2.326089      -0.642195
H       -0.441615       2.599352      -0.066735
H        0.288202       1.437926       1.075098
H       -2.411270       1.164042      -0.212781
C        1.757634      -0.485969       0.505695
C        1.578456       0.472550      -0.518678
H        2.118541      -0.021981       1.431309
H        2.061129      -1.528421       0.444733
H        1.165883       0.140879      -1.472267
H        2.275672       1.308192      -0.601517
16

C       -0.124257      -1.500651       0.171717
C       -1.306047      -0.691320      -0.188621
C       -1.350728       0.641723      -0.137394
C       -0.145174       1.464904       0.090720
H       -2.175404      -1.219789      -0.571489
H       -0.057448      -1.900287       1.184526
H        0.135153      -2.224890      -0.603803
H       -0.158472       2.494077      -0.285568
H        0.309030       1.454180       1.078614
H       -2.293985       1.142492      -0.316020
C        1.426783      -0.532360       0.504004
C        1.336971       0.588450      -0.475835
H        1.612478      -0.103882       1.497666
H        1.912139      -1.487285       0.382250
H        1.093676       0.294032      -1.496235
H        2.061541       1.406122      -0.433089
16

C        0.003496      -1.475819       0.157125
C       -1.239084      -0.717584      -0.174443
C       -1.294282       0.617591      -0.193718
C       -0.084289       1.450546       0.038699
H       -2.116843      -1.293661      -0.482778
H       -0.109595      -2.086290       1.064924
H        0.264639      -2.131458      -0.680069
H       -0.128812       2.428902      -0.445632
H        0.084975       1.632399       1.115430
H       -2.247114       1.117010      -0.383032
C        1.259045      -0.578492       0.519517
C        1.237958       0.684358      -0.335194
H        1.266459      -0.272148       1.567084
H        2.083950      -1.296694       0.337716
H        1.194977       0.433840      -1.404053
H        2.058832       1.385091      -0.146831
16

C        0.018468      -1.505106       0.071568
C       -1.254772      -0.702834      -0.048582
C       -1.285462       0.633333      -0.085430
C       -0.048009       1.496988      -0.044066
H       -2.188019      -1.262697      -0.104884
H       -0.121593      -2.316432       0.799572
H        0.226662      -2.006336      -0.887554
H       -0.137346       2.309933      -0.778244
H        0.019548       1.994894       0.936681
H       -2.244726       1.146089      -0.151793
C        1.215907      -0.631805       0.479561
C        1.229547       0.684801      -0.310095
H        1.148086      -0.405550       1.552894
H        2.153161      -1.182749       0.332157
H        1.295894       0.458487      -1.383669
H        2.116007       1.280032      -0.058114
[GEOCONV]
energy
0.0
3.21034683881
21.1949904241
51.9475975642
71.7200821117
12.2071674264
-37.9299079787
-45.7547594534
max-force
2.97529353585e-05
0.000702723737347
0.00285012299311
0.00454767101165
0.00781603287901
0.00979621393553
0.0043116627576
4.30845214786e-05
max-step
1000.0
1000.0
1000.0
1000.0
1000.0
1000.0
1000.0
1000.0
