[Molden Format]
[Geometries] (XYZ)
16

C       -1.059909      -1.517237       0.052691
C       -1.829498      -0.594187      -0.539856
C       -2.012674       0.793570      -0.089867
C       -1.097540       1.540846       0.541127
H       -2.400519      -0.882442      -1.423438
H       -0.513588      -1.303953       0.968128
H       -0.966686      -2.521284      -0.351445
H       -1.321105       2.556152       0.856758
H       -0.094651       1.173852       0.744840
H       -2.981516       1.238092      -0.320817
C        3.018420      -0.332595       0.534387
C        2.482714       0.170110      -0.576438
H        3.891666       0.112702       1.005635
H        2.608498      -1.215827       1.019112
H        1.608118      -0.276199      -1.043622
H        2.895276       1.051230      -1.062768
16

C       -0.880700      -1.538015       0.057427
C       -1.723967      -0.626942      -0.448451
C       -1.874129       0.782033      -0.061534
C       -0.944293       1.578894       0.485751
H       -2.385202      -0.944047      -1.256326
H       -0.289632      -1.366520       0.952453
H       -0.811431      -2.526691      -0.388535
H       -1.166313       2.628771       0.658874
H        0.038933       1.228078       0.784470
H       -2.840047       1.223763      -0.309427
C        2.731550      -0.375341       0.531288
C        2.300025       0.210457      -0.585706
H        3.480013       0.109587       1.154086
H        2.400943      -1.360841       0.849226
H        1.544067      -0.232391      -1.228529
H        2.723527       1.155393      -0.918961
16

C       -0.729320      -1.574322       0.069621
C       -1.615730      -0.657156      -0.362240
C       -1.732598       0.770296      -0.046688
C       -0.787410       1.611789       0.417904
H       -2.347804      -0.994858      -1.099168
H       -0.204825      -1.522394       1.017811
H       -0.659846      -2.516261      -0.471366
H       -1.003252       2.678223       0.434058
H        0.133491       1.305077       0.898684
H       -2.699056       1.206822      -0.303031
C        2.457564      -0.403203       0.515661
C        2.109867       0.266206      -0.583902
H        3.092651       0.093931       1.248422
H        2.279281      -1.459848       0.690568
H        1.458707      -0.148243      -1.348856
H        2.586409       1.214593      -0.823016
16

C       -0.600506      -1.604060       0.101787
C       -1.511813      -0.677113      -0.291720
C       -1.594322       0.755686      -0.050267
C       -0.626888       1.618556       0.349501
H       -2.298146      -1.039207      -0.959472
H       -0.197189      -1.695328       1.103591
H       -0.519744      -2.493478      -0.524523
H       -0.817825       2.685435       0.235712
H        0.181946       1.385131       1.027188
H       -2.558611       1.195263      -0.309598
C        2.191876      -0.427647       0.484605
C        1.911973       0.337831      -0.577277
H        2.720110       0.058092       1.308471
H        2.196433      -1.510536       0.538097
H        1.363436      -0.046058      -1.434413
H        2.448697       1.269262      -0.744638
16

C       -0.451490      -1.594016       0.132967
C       -1.421705      -0.677344      -0.248318
C       -1.477966       0.725858      -0.062551
C       -0.439192       1.580050       0.283565
H       -2.242069      -1.080762      -0.847660
H       -0.165208      -1.793726       1.159868
H       -0.312347      -2.427600      -0.558190
H       -0.565361       2.647657       0.097067
H        0.261119       1.390649       1.086465
H       -2.440548       1.187597      -0.284778
C        1.914979      -0.449525       0.474532
C        1.686969       0.410441      -0.572139
H        2.345132       0.024688       1.361975
H        2.063857      -1.523712       0.459137
H        1.211434       0.049419      -1.482251
H        2.284558       1.312655      -0.693203
16

C       -0.295418      -1.552211       0.154249
C       -1.358940      -0.669362      -0.199487
C       -1.397204       0.695853      -0.070492
C       -0.267641       1.524321       0.201935
H       -2.216493      -1.125571      -0.697229
H       -0.106400      -1.852884       1.182598
H       -0.108202      -2.329764      -0.588613
H       -0.330424       2.583098      -0.060858
H        0.333601       1.393621       1.097006
H       -2.353811       1.185272      -0.244819
C        1.661528      -0.493907       0.469324
C        1.491802       0.487936      -0.551312
H        1.993089      -0.042862       1.411121
H        1.958909      -1.533796       0.386947
H        1.102604       0.162216      -1.515626
H        2.158161       1.349852      -0.607110
16

C       -0.152880      -1.501782       0.180722
C       -1.312671      -0.662257      -0.133389
C       -1.335438       0.674059      -0.081902
C       -0.123597       1.472344       0.118229
H       -2.203483      -1.169113      -0.501914
H       -0.070070      -1.922136       1.188123
H        0.039870      -2.231039      -0.605349
H       -0.150330       2.501375      -0.246225
H        0.343482       1.454136       1.108264
H       -2.281011       1.191769      -0.241618
C        1.442779      -0.564074       0.444222
C        1.330343       0.572446      -0.514778
H        1.676545      -0.166515       1.435162
H        1.939678      -1.521485       0.268063
H        1.048056       0.293953      -1.535645
H        2.083093       1.365799      -0.487515
16

C       -0.057204      -1.492468       0.175788
C       -1.292428      -0.659863      -0.042328
C       -1.296974       0.675839      -0.072886
C       -0.031557       1.472857       0.030903
H       -2.220160      -1.196916      -0.242758
H       -0.109056      -2.097312       1.089407
H        0.090765      -2.163315      -0.683112
H       -0.080019       2.438980      -0.482132
H        0.237455       1.678606       1.075602
H       -2.240003       1.211836      -0.197280
C        1.296286      -0.631538       0.407117
C        1.243328       0.624445      -0.459752
H        1.427882      -0.322768       1.452351
H        2.048971      -1.382635       0.158443
H        1.095763       0.368196      -1.514502
H        2.108973       1.293670      -0.355658
16

C        0.018468      -1.505105       0.071568
C       -1.254771      -0.702834      -0.048582
C       -1.285462       0.633332      -0.085430
C       -0.048009       1.496987      -0.044066
H       -2.188018      -1.262696      -0.104884
H       -0.121592      -2.316431       0.799572
H        0.226663      -2.006335      -0.887554
H       -0.137346       2.309932      -0.778244
H        0.019549       1.994893       0.936681
H       -2.244725       1.146088      -0.151793
C        1.215907      -0.631805       0.479561
C        1.229547       0.684800      -0.310094
H        1.148085      -0.405550       1.552893
H        2.153160      -1.182749       0.332157
H        1.295893       0.458486      -1.383669
H        2.116006       1.280031      -0.058114
[GEOCONV]
energy
0.0
1.535005785699468
11.358501159847947
32.50286253198283
58.297614361625165
60.42518668828416
9.279089986986946
-37.3142871739401
-45.754759598348755
max-force
2.9652714661116703e-05
0.0008858926534897177
0.0024034927626316606
0.0033785782439954915
0.005741304234835373
0.007833475948401907
0.0077460819905654345
0.004508517824830773
4.304522126161109e-05
max-step
1000.0
1000.0
1000.0
1000.0
1000.0
1000.0
1000.0
1000.0
1000.0
