[Molden Format]
[Geometries] (XYZ)
16

C       -1.059909      -1.517238       0.052691
C       -1.829498      -0.594187      -0.539857
C       -2.012674       0.793571      -0.089868
C       -1.097540       1.540847       0.541127
H       -2.400519      -0.882442      -1.423438
H       -0.513588      -1.303954       0.968128
H       -0.966685      -2.521285      -0.351445
H       -1.321104       2.556154       0.856758
H       -0.094651       1.173853       0.744840
H       -2.981516       1.238092      -0.320817
C        3.018420      -0.332595       0.534388
C        2.482714       0.170110      -0.576438
H        3.891666       0.112702       1.005636
H        2.608498      -1.215827       1.019113
H        1.608118      -0.276199      -1.043622
H        2.895275       1.051231      -1.062768
16

C       -0.862816      -1.564757       0.053748
C       -1.691080      -0.631796      -0.440063
C       -1.840659       0.765503      -0.056876
C       -0.919432       1.581121       0.474320
H       -2.365717      -0.953846      -1.236285
H       -0.412243      -1.478021       1.039510
H       -0.748502      -2.514196      -0.462995
H       -1.141860       2.636095       0.621350
H        0.037542       1.259071       0.877247
H       -2.820735       1.195375      -0.267178
C        2.779169      -0.367759       0.551062
C        2.308386       0.217269      -0.544328
H        3.574665       0.103961       1.127939
H        2.514447      -1.365056       0.892936
H        1.510660      -0.223191      -1.137532
H        2.798831       1.096144      -0.956699
16

C       -0.070762      -1.511046       0.089898
C       -1.298195      -0.702896      -0.142495
C       -1.349627       0.630749      -0.108944
C       -0.142735       1.492155       0.004970
H       -2.212668      -1.251357      -0.375164
H       -0.135967      -2.169286       0.962589
H        0.178429      -2.095002      -0.798167
H       -0.201514       2.418981      -0.570663
H        0.090463       1.764957       1.045217
H       -2.319199       1.124393      -0.185833
C        1.358411      -0.561106       0.538494
C        1.336598       0.648991      -0.354657
H        1.421961      -0.253133       1.588127
H        2.115170      -1.341917       0.390582
H        1.282858       0.382953      -1.418560
H        2.150506       1.367797      -0.195156
16

C        0.018468      -1.505106       0.071568
C       -1.254772      -0.702834      -0.048582
C       -1.285462       0.633333      -0.085430
C       -0.048009       1.496988      -0.044066
H       -2.188019      -1.262697      -0.104884
H       -0.121593      -2.316432       0.799572
H        0.226662      -2.006336      -0.887554
H       -0.137346       2.309933      -0.778244
H        0.019548       1.994894       0.936681
H       -2.244726       1.146089      -0.151793
C        1.215907      -0.631805       0.479561
C        1.229547       0.684801      -0.310095
H        1.148086      -0.405550       1.552894
H        2.153161      -1.182749       0.332157
H        1.295894       0.458487      -1.383669
H        2.116007       1.280032      -0.058114
[GEOCONV]
energy
0.0
6.5185028853
-19.5784361666
-45.7547594534
max-force
2.97529353585e-05
0.00309077589184
0.0160839071696
4.30845214786e-05
max-step
1000.0
1000.0
1000.0
1000.0
