[Molden Format]
[Geometries] (XYZ)
16

C       -1.059909      -1.517238       0.052691
C       -1.829498      -0.594187      -0.539857
C       -2.012674       0.793571      -0.089868
C       -1.097540       1.540847       0.541127
H       -2.400519      -0.882442      -1.423438
H       -0.513588      -1.303954       0.968128
H       -0.966685      -2.521285      -0.351445
H       -1.321104       2.556154       0.856758
H       -0.094651       1.173853       0.744840
H       -2.981516       1.238092      -0.320817
C        3.018420      -0.332595       0.534388
C        2.482714       0.170110      -0.576438
H        3.891666       0.112702       1.005636
H        2.608498      -1.215827       1.019113
H        1.608118      -0.276199      -1.043622
H        2.895275       1.051231      -1.062768
16

C       -0.878611      -1.530919       0.059939
C       -1.732896      -0.625710      -0.446667
C       -1.878924       0.784788      -0.060312
C       -0.950391       1.572091       0.487139
H       -2.403410      -0.948974      -1.244734
H       -0.240354      -1.326153       0.916760
H       -0.827852      -2.533330      -0.356026
H       -1.173167       2.619713       0.672682
H        0.045697       1.223118       0.748280
H       -2.842415       1.230428      -0.309812
C        2.724885      -0.380693       0.527404
C        2.316179       0.208182      -0.593527
H        3.448055       0.107613       1.177448
H        2.380228      -1.366730       0.831707
H        1.585405      -0.239180      -1.262294
H        2.718100       1.174655      -0.891272
16

C       -0.736557      -1.571946       0.085314
C       -1.608555      -0.656824      -0.362518
C       -1.726925       0.769813      -0.045698
C       -0.786139       1.604702       0.426111
H       -2.322842      -0.990327      -1.118070
H       -0.199713      -1.503722       1.026467
H       -0.672788      -2.522606      -0.439253
H       -0.999328       2.671423       0.445370
H        0.132365       1.287693       0.907820
H       -2.686494       1.210392      -0.319810
C        2.445698      -0.400470       0.505907
C        2.105947       0.268600      -0.598079
H        3.067210       0.092132       1.253057
H        2.250479      -1.456222       0.674491
H        1.473966      -0.151310      -1.376340
H        2.558850       1.233612      -0.816940
16

C       -0.609334      -1.615021       0.131383
C       -1.489451      -0.677940      -0.288807
C       -1.562735       0.758813      -0.051420
C       -0.607575       1.612168       0.375815
H       -2.238629      -1.022691      -1.008093
H       -0.191435      -1.689045       1.128182
H       -0.530530      -2.514162      -0.481577
H       -0.786690       2.679835       0.259652
H        0.184133       1.359688       1.063264
H       -2.505671       1.208991      -0.366609
C        2.151847      -0.411917       0.459767
C        1.880524       0.338229      -0.611979
H        2.640041       0.075726       1.306801
H        2.133730      -1.493561       0.512823
H        1.357418      -0.055624      -1.478793
H        2.363291       1.302926      -0.750639
16

C       -0.485679      -1.621555       0.165561
C       -1.407251      -0.683567      -0.240460
C       -1.442910       0.733398      -0.074510
C       -0.440295       1.592376       0.312529
H       -2.205622      -1.063400      -0.884592
H       -0.207713      -1.837649       1.193852
H       -0.368506      -2.463062      -0.519748
H       -0.564261       2.652828       0.090008
H        0.206036       1.430196       1.168064
H       -2.376690       1.199481      -0.394190
C        1.898205      -0.437170       0.428379
C        1.671042       0.417812      -0.591851
H        2.304697       0.028182       1.332953
H        2.073589      -1.507615       0.390711
H        1.214740       0.058272      -1.513285
H        2.233261       1.344508      -0.693667
16

C       -0.303951      -1.549591       0.186413
C       -1.342058      -0.666828      -0.215181
C       -1.371254       0.698144      -0.093442
C       -0.249163       1.508027       0.221881
H       -2.167820      -1.116619      -0.772891
H       -0.095727      -1.804798       1.222490
H       -0.110898      -2.357110      -0.522775
H       -0.282698       2.573550      -0.008074
H        0.328130       1.335189       1.123049
H       -2.307214       1.200692      -0.336309
C        1.629752      -0.482261       0.449492
C        1.446101       0.494246      -0.561846
H        1.956198      -0.040895       1.395787
H        1.902149      -1.527865       0.361384
H        1.054217       0.167811      -1.523539
H        2.073309       1.384544      -0.606452
16

C       -0.127867      -1.468964       0.213049
C       -1.298418      -0.658040      -0.153194
C       -1.322304       0.685365      -0.099034
C       -0.085852       1.423884       0.112491
H       -2.140944      -1.170669      -0.593174
H       -0.020146      -1.823247       1.234551
H        0.070073      -2.233431      -0.538677
H       -0.058574       2.477721      -0.197399
H        0.333394       1.351395       1.109785
H       -2.240215       1.216577      -0.272185
C        1.393149      -0.566235       0.436733
C        1.266670       0.583561      -0.514252
H        1.637371      -0.179619       1.435190
H        1.837917      -1.536348       0.269880
H        1.020994       0.276123      -1.525446
H        1.955480       1.430448      -0.475030
16

C       -0.051637      -1.467135       0.188539
C       -1.280214      -0.655715      -0.059129
C       -1.288199       0.675422      -0.088623
C       -0.017707       1.446279       0.037175
H       -2.194533      -1.195251      -0.287002
H       -0.110320      -2.045936       1.115355
H        0.112080      -2.152904      -0.653517
H       -0.039017       2.416281      -0.454473
H        0.227787       1.624817       1.092616
H       -2.224643       1.216621      -0.248024
C        1.271732      -0.625924       0.409805
C        1.217476       0.621410      -0.456293
H        1.395485      -0.318268       1.448906
H        2.012013      -1.379330       0.166895
H        1.083429       0.352544      -1.509022
H        2.058885       1.311552      -0.345188
16

C        0.018468      -1.505106       0.071568
C       -1.254772      -0.702834      -0.048582
C       -1.285462       0.633333      -0.085430
C       -0.048009       1.496988      -0.044066
H       -2.188019      -1.262697      -0.104884
H       -0.121593      -2.316432       0.799572
H        0.226662      -2.006336      -0.887554
H       -0.137346       2.309933      -0.778244
H        0.019548       1.994894       0.936681
H       -2.244726       1.146089      -0.151793
C        1.215907      -0.631805       0.479561
C        1.229547       0.684801      -0.310095
H        1.148086      -0.405550       1.552894
H        2.153161      -1.182749       0.332157
H        1.295894       0.458487      -1.383669
H        2.116007       1.280032      -0.058114
[GEOCONV]
energy
0.0
0.958502964553
9.68771963951
27.774823008
53.5720006299
55.4132235614
5.94174620206
-37.5139363575
-45.7547594534
max-force
2.97529353585e-05
0.00227718038724
0.00199287753014
0.00247859699861
0.00421301984343
0.00726671107258
0.00939745153338
0.00534781138957
4.30845214786e-05
max-step
1000.0
1000.0
1000.0
1000.0
1000.0
1000.0
1000.0
1000.0
1000.0
