[Molden Format]
[Geometries] (XYZ)
16

C       -1.059909      -1.517238       0.052691
C       -1.829498      -0.594187      -0.539857
C       -2.012674       0.793571      -0.089868
C       -1.097540       1.540847       0.541127
H       -2.400519      -0.882442      -1.423438
H       -0.513588      -1.303954       0.968128
H       -0.966685      -2.521285      -0.351445
H       -1.321104       2.556154       0.856758
H       -0.094651       1.173853       0.744840
H       -2.981516       1.238092      -0.320817
C        3.018420      -0.332595       0.534388
C        2.482714       0.170110      -0.576438
H        3.891666       0.112702       1.005636
H        2.608498      -1.215827       1.019113
H        1.608118      -0.276199      -1.043622
H        2.895275       1.051231      -1.062768
16

C       -0.905060      -1.526623       0.076274
C       -1.750870      -0.629486      -0.447649
C       -1.893510       0.785521      -0.075546
C       -0.968314       1.570361       0.494163
H       -2.424851      -0.964764      -1.239266
H       -0.241242      -1.293213       0.906457
H       -0.869812      -2.544240      -0.303834
H       -1.188605       2.614761       0.695819
H        0.029319       1.221078       0.745653
H       -2.850873       1.233630      -0.339902
C        2.732433      -0.387100       0.513537
C        2.350096       0.219194      -0.608973
H        3.422179       0.092296       1.205985
H        2.385532      -1.381261       0.784002
H        1.654225      -0.235139      -1.309124
H        2.720700       1.209029      -0.867331
16

C       -0.783115      -1.589614       0.122811
C       -1.623814      -0.658412      -0.356860
C       -1.724369       0.774738      -0.061729
C       -0.813762       1.606528       0.473136
H       -2.318426      -0.983515      -1.132342
H       -0.195238      -1.486331       1.029870
H       -0.763123      -2.565433      -0.354737
H       -1.029475       2.672297       0.467546
H        0.102773       1.296397       0.961521
H       -2.641494       1.233893      -0.433852
C        2.427654      -0.397739       0.459830
C        2.148322       0.279527      -0.653035
H        2.966173       0.098624       1.265347
H        2.234675      -1.459110       0.593525
H        1.596778      -0.139455      -1.491782
H        2.531040       1.289451      -0.786791
16

C       -0.662935      -1.629666       0.177716
C       -1.508343      -0.683904      -0.283362
C       -1.559075       0.762732      -0.076066
C       -0.633035       1.613698       0.418388
H       -2.224029      -1.022002      -1.036602
H       -0.204186      -1.655192       1.160213
H       -0.626493      -2.561822      -0.380666
H       -0.801771       2.678553       0.281117
H        0.130235       1.359124       1.134587
H       -2.442542       1.228464      -0.515645
C        2.144444      -0.414332       0.408655
C        1.906792       0.359056      -0.650786
H        2.566141       0.054508       1.296218
H        2.138327      -1.503742       0.420549
H        1.450809      -0.017111      -1.567270
H        2.321517       1.362518      -0.705638
16

C       -0.528722      -1.623165       0.215835
C       -1.415393      -0.685497      -0.238845
C       -1.433882       0.741403      -0.107719
C       -0.453238       1.585045       0.349726
H       -2.172268      -1.062994      -0.935532
H       -0.197453      -1.756261       1.236013
H       -0.450978      -2.517835      -0.403356
H       -0.554111       2.645408       0.125982
H        0.164493       1.390720       1.212273
H       -2.301494       1.216647      -0.554767
C        1.878712      -0.441441       0.379761
C        1.669067       0.439403      -0.623336
H        2.226765      -0.009106       1.320177
H        2.042886      -1.508820       0.299681
H        1.270695       0.113232      -1.582299
H        2.160622       1.406918      -0.632349
16

C       -0.367142      -1.568234       0.255973
C       -1.343416      -0.666986      -0.220352
C       -1.351075       0.710398      -0.137995
C       -0.253637       1.502186       0.274010
H       -2.105553      -1.099247      -0.873366
H       -0.112577      -1.753600       1.293792
H       -0.216983      -2.428803      -0.399307
H       -0.264475       2.566779       0.038411
H        0.263480       1.306391       1.204337
H       -2.219369       1.224145      -0.548961
C        1.632151      -0.473619       0.392930
C        1.432360       0.513477      -0.587520
H        1.921145      -0.072192       1.366654
H        1.897583      -1.514909       0.261363
H        1.068386       0.216455      -1.568600
H        1.984031       1.451074      -0.563830
16

C       -0.154338      -1.478377       0.297757
C       -1.302035      -0.654569      -0.177058
C       -1.318045       0.690813      -0.181537
C       -0.081616       1.429303       0.170663
H       -2.100470      -1.176521      -0.707431
H       -0.060868      -1.783514       1.351233
H        0.007490      -2.302645      -0.399033
H       -0.035840       2.495781      -0.082961
H        0.258767       1.283836       1.199801
H       -2.207462       1.230246      -0.513820
C        1.391254      -0.569962       0.405973
C        1.248958       0.602943      -0.530108
H        1.639721      -0.219990       1.413094
H        1.859509      -1.540638       0.176082
H        0.978201       0.334197      -1.557640
H        1.947390       1.444657      -0.456619
16

C       -0.062295      -1.473121       0.228234
C       -1.291347      -0.659409      -0.080612
C       -1.283261       0.681639      -0.128058
C       -0.009232       1.455433       0.056345
H       -2.197888      -1.209454      -0.376667
H       -0.168789      -2.027478       1.156734
H        0.086224      -2.212935      -0.583131
H       -0.030092       2.424331      -0.409540
H        0.173913       1.617228       1.119399
H       -2.191187       1.217707      -0.382050
C        1.266028      -0.628529       0.397912
C        1.208422       0.629445      -0.445532
H        1.410614      -0.334022       1.452608
H        2.042674      -1.345122       0.117792
H        1.089637       0.380692      -1.497348
H        2.081644       1.287935      -0.305339
16

C        0.018468      -1.505106       0.071568
C       -1.254772      -0.702834      -0.048582
C       -1.285462       0.633333      -0.085430
C       -0.048009       1.496988      -0.044066
H       -2.188019      -1.262697      -0.104884
H       -0.121593      -2.316432       0.799572
H        0.226662      -2.006336      -0.887554
H       -0.137346       2.309933      -0.778244
H        0.019548       1.994894       0.936681
H       -2.244726       1.146089      -0.151793
C        1.215907      -0.631805       0.479561
C        1.229547       0.684801      -0.310095
H        1.148086      -0.405550       1.552894
H        2.153161      -1.182749       0.332157
H        1.295894       0.458487      -1.383669
H        2.116007       1.280032      -0.058114
[GEOCONV]
energy
0.0
0.576567362994
6.25524496089
20.895571352
41.9883057376
47.4508449387
-0.334426108166
-39.7763308466
-45.7547594534
max-force
2.97529353585e-05
0.000601697856658
0.0013064978473
0.00273450154622
0.00374030887557
0.00514576645423
0.00623008241203
0.00705129308826
4.30845214786e-05
max-step
1000.0
1000.0
1000.0
1000.0
1000.0
1000.0
1000.0
1000.0
1000.0
