[Molden Format]
[Geometries] (XYZ)
16

C       -1.059909      -1.517238       0.052691
C       -1.829498      -0.594187      -0.539857
C       -2.012674       0.793571      -0.089868
C       -1.097540       1.540847       0.541127
H       -2.400519      -0.882442      -1.423438
H       -0.513588      -1.303954       0.968128
H       -0.966685      -2.521285      -0.351445
H       -1.321104       2.556154       0.856758
H       -0.094651       1.173853       0.744840
H       -2.981516       1.238092      -0.320817
C        3.018420      -0.332595       0.534388
C        2.482714       0.170110      -0.576438
H        3.891666       0.112702       1.005636
H        2.608498      -1.215827       1.019113
H        1.608118      -0.276199      -1.043622
H        2.895275       1.051231      -1.062768
16

C       -0.923788      -1.520820       0.096156
C       -1.758357      -0.629116      -0.453925
C       -1.898895       0.788434      -0.094006
C       -0.981687       1.562798       0.500603
H       -2.426371      -0.972884      -1.244276
H       -0.261124      -1.267843       0.919077
H       -0.891419      -2.548085      -0.257452
H       -1.196060       2.605476       0.716059
H        0.010278       1.205029       0.762965
H       -2.849806       1.242154      -0.374302
C        2.738067      -0.389357       0.499492
C        2.367522       0.232362      -0.618539
H        3.409184       0.079941       1.215037
H        2.395837      -1.391934       0.745245
H        1.692939      -0.224284      -1.337473
H        2.722031       1.232764      -0.854796
16

C       -0.837925      -1.581972       0.199106
C       -1.642299      -0.666013      -0.358448
C       -1.718063       0.778798      -0.111165
C       -0.831588       1.576243       0.503800
H       -2.310781      -1.011613      -1.148084
H       -0.214224      -1.393734       1.066517
H       -0.840026      -2.599774      -0.184803
H       -1.009741       2.647516       0.519602
H        0.053422       1.221348       1.020731
H       -2.584072       1.261860      -0.565045
C        2.428597      -0.406965       0.400952
C        2.193750       0.322924      -0.686665
H        2.868717       0.051613       1.283823
H        2.241263      -1.475943       0.458155
H        1.739363      -0.077886      -1.587634
H        2.483900       1.371949      -0.718628
16

C       -0.746422      -1.643903       0.258940
C       -1.552591      -0.714446      -0.284286
C       -1.569388       0.739891      -0.139661
C       -0.671908       1.562463       0.434315
H       -2.239307      -1.072396      -1.056592
H       -0.212528      -1.534933       1.194304
H       -0.752655      -2.640425      -0.175475
H       -0.793606       2.637335       0.300823
H        0.058941       1.257522       1.171034
H       -2.368639       1.219938      -0.702938
C        2.125653      -0.459484       0.315586
C        1.946303       0.393062      -0.694378
H        2.416389      -0.066259       1.288646
H        2.129019      -1.541478       0.222796
H        1.628419       0.085909      -1.686417
H        2.239682       1.438494      -0.587031
16

C       -0.615075      -1.634730       0.313888
C       -1.446048      -0.716726      -0.248212
C       -1.419552       0.726633      -0.191748
C       -0.476126       1.521454       0.377818
H       -2.126793      -1.107041      -1.005403
H       -0.196685      -1.604219       1.314341
H       -0.596798      -2.614999      -0.162544
H       -0.480540       2.590460       0.166703
H        0.046757       1.249508       1.286103
H       -2.158962       1.214980      -0.828347
C        1.865943      -0.471628       0.272257
C        1.656087       0.482502      -0.648099
H        2.141494      -0.138731       1.274786
H        2.023678      -1.529910       0.098725
H        1.347377       0.242930      -1.662573
H        2.049127       1.485291      -0.507893
16

C       -0.491425      -1.607705       0.346197
C       -1.363675      -0.694722      -0.221046
C       -1.311419       0.693610      -0.231019
C       -0.252533       1.428102       0.285672
H       -2.072523      -1.108202      -0.924007
H       -0.077604      -1.609482       1.410027
H       -0.489387      -2.572667      -0.148578
H       -0.136131       2.515068       0.066627
H        0.100541       1.178751       1.271985
H       -2.046180       1.165423      -0.876818
C        1.646442      -0.475470       0.286786
C        1.406986       0.591229      -0.568396
H        1.890387      -0.193062       1.279634
H        1.926438      -1.488730       0.060642
H        1.131900       0.427226      -1.597906
H        1.923898       1.541011      -0.388988
16

C       -0.179425      -1.444754       0.384649
C       -1.285736      -0.654273      -0.220465
C       -1.293071       0.685917      -0.265119
C       -0.081392       1.379612       0.212406
H       -2.009889      -1.200275      -0.829783
H       -0.129643      -1.578085       1.464019
H       -0.078200      -2.391333      -0.143846
H        0.004237       2.458907       0.059905
H        0.130432       1.128698       1.263082
H       -2.053093       1.215493      -0.832978
C        1.349707      -0.613007       0.331603
C        1.197404       0.622005      -0.513674
H        1.633864      -0.342081       1.344162
H        1.848497      -1.512146      -0.013168
H        0.965092       0.437934      -1.560092
H        1.933522       1.414752      -0.355169
16

C       -0.084797      -1.480924       0.266336
C       -1.280581      -0.657101      -0.142662
C       -1.274550       0.678093      -0.210682
C       -0.019103       1.463971       0.083607
H       -2.167646      -1.209916      -0.453367
H       -0.273043      -1.956017       1.239471
H        0.027636      -2.306093      -0.449875
H       -0.044725       2.461502      -0.369807
H        0.085657       1.619080       1.170217
H       -2.160276       1.207878      -0.558206
C        1.248661      -0.671798       0.385705
C        1.205883       0.650012      -0.389136
H        1.441892      -0.445123       1.441208
H        2.066231      -1.312541       0.036891
H        1.111398       0.450968      -1.464181
H        2.122353       1.232865      -0.229950
16

C        0.018468      -1.505106       0.071568
C       -1.254772      -0.702834      -0.048582
C       -1.285462       0.633333      -0.085430
C       -0.048009       1.496988      -0.044066
H       -2.188019      -1.262697      -0.104884
H       -0.121593      -2.316432       0.799572
H        0.226662      -2.006336      -0.887554
H       -0.137346       2.309933      -0.778244
H        0.019548       1.994894       0.936681
H       -2.244726       1.146089      -0.151793
C        1.215907      -0.631805       0.479561
C        1.229547       0.684801      -0.310095
H        1.148086      -0.405550       1.552894
H        2.153161      -1.182749       0.332157
H        1.295894       0.458487      -1.383669
H        2.116007       1.280032      -0.058114
[GEOCONV]
energy
0.0
0.469605905208
3.34462000203
12.1856062203
27.9710709948
39.7155898083
-12.1159957039
-42.3886935954
-45.7547594534
max-force
2.97529353585e-05
0.00043272119998
0.00100824818415
0.00194456273058
0.00188145120229
0.0138743102009
0.00330206437743
0.000569331462659
4.30845214786e-05
max-step
1000.0
1000.0
1000.0
1000.0
1000.0
1000.0
1000.0
1000.0
1000.0
