[Molden Format]
[Geometries] (XYZ)
16

C       -1.059909      -1.517238       0.052691
C       -1.829498      -0.594187      -0.539857
C       -2.012674       0.793571      -0.089868
C       -1.097540       1.540847       0.541127
H       -2.400519      -0.882442      -1.423438
H       -0.513588      -1.303954       0.968128
H       -0.966685      -2.521285      -0.351445
H       -1.321104       2.556154       0.856758
H       -0.094651       1.173853       0.744840
H       -2.981516       1.238092      -0.320817
C        3.018420      -0.332595       0.534388
C        2.482714       0.170110      -0.576438
H        3.891666       0.112702       1.005636
H        2.608498      -1.215827       1.019113
H        1.608118      -0.276199      -1.043622
H        2.895275       1.051231      -1.062768
16

C       -0.915719      -1.522331       0.081911
C       -1.758031      -0.627949      -0.451876
C       -1.899797       0.786765      -0.083173
C       -0.977216       1.567271       0.495693
H       -2.429205      -0.966284      -1.242575
H       -0.250034      -1.280027       0.905293
H       -0.882672      -2.543773      -0.285642
H       -1.195477       2.610761       0.706074
H        0.019372       1.215484       0.746781
H       -2.855191       1.237243      -0.352397
C        2.736928      -0.386925       0.508085
C        2.358923       0.223842      -0.613658
H        3.419872       0.088820       1.207683
H        2.389773      -1.382677       0.771575
H        1.671009      -0.232380      -1.320138
H        2.722473       1.217798      -0.864262
16

C       -0.822633      -1.579716       0.179676
C       -1.635307      -0.661751      -0.362683
C       -1.718999       0.778679      -0.100109
C       -0.828312       1.581288       0.501511
H       -2.310236      -1.003313      -1.149534
H       -0.210463      -1.407775       1.059228
H       -0.817401      -2.591012      -0.223590
H       -1.016830       2.652997       0.521418
H        0.065362       1.233600       1.006758
H       -2.599101       1.255992      -0.529897
C        2.432139      -0.401702       0.419146
C        2.180796       0.309929      -0.677605
H        2.907569       0.067404       1.276015
H        2.236927      -1.467892       0.502254
H        1.692883      -0.100282      -1.556447
H        2.499457       1.347339      -0.744014
16

C       -0.701603      -1.621999       0.223292
C       -1.523462      -0.684897      -0.285864
C       -1.557243       0.766124      -0.106156
C       -0.649990       1.598838       0.440577
H       -2.221058      -1.032224      -1.051558
H       -0.198331      -1.566587       1.181605
H       -0.688524      -2.595585      -0.263645
H       -0.796375       2.670825       0.316923
H        0.103997       1.309291       1.159216
H       -2.398182       1.242429      -0.609183
C        2.151154      -0.421286       0.371770
C        1.940923       0.384405      -0.669575
H        2.513506       0.012509       1.300858
H        2.136738      -1.504449       0.337780
H        1.551655       0.034403      -1.621938
H        2.287655       1.414126      -0.644827
16

C       -0.566655      -1.614959       0.272566
C       -1.419499      -0.686913      -0.246063
C       -1.422035       0.750945      -0.142356
C       -0.465846       1.568472       0.381586
H       -2.118823      -1.067674      -0.993067
H       -0.197870      -1.661416       1.291109
H       -0.508133      -2.556192      -0.275923
H       -0.531495       2.637682       0.174009
H        0.123158       1.327082       1.255093
H       -2.231986       1.239567      -0.685152
C        1.889950      -0.443008       0.334974
C        1.679487       0.459698      -0.637362
H        2.200301      -0.056274       1.306552
H        2.035407      -1.509072       0.211642
H        1.317215       0.161203      -1.618460
H        2.103064       1.458373      -0.577402
16

C       -0.407913      -1.569386       0.301661
C       -1.347160      -0.669561      -0.223285
C       -1.339494       0.717693      -0.171593
C       -0.268200       1.495868       0.301704
H       -2.065269      -1.101063      -0.924320
H       -0.119935      -1.686103       1.339721
H       -0.289744      -2.473743      -0.297949
H       -0.259334       2.560706       0.068637
H        0.213935       1.276731       1.245189
H       -2.150048       1.232536      -0.685535
C        1.647089      -0.477773       0.353676
C        1.446314       0.528799      -0.591021
H        1.908485      -0.118634       1.350374
H        1.906380      -1.513828       0.178452
H        1.112890       0.265060      -1.591789
H        1.953182       1.486698      -0.506155
16

C       -0.173297      -1.458746       0.334938
C       -1.284063      -0.660057      -0.197165
C       -1.292950       0.691580      -0.211528
C       -0.079625       1.411822       0.195686
H       -2.035562      -1.187860      -0.786729
H       -0.079894      -1.679067       1.395471
H       -0.045802      -2.330978      -0.287713
H       -0.028578       2.474890      -0.020387
H        0.231099       1.221076       1.236604
H       -2.125645       1.223702      -0.665428
C        1.371281      -0.579605       0.378339
C        1.231179       0.618740      -0.518041
H        1.618430      -0.259667       1.375256
H        1.839755      -1.504353       0.101934
H        0.953629       0.385317      -1.546531
H        1.939648       1.438777      -0.415864
16

C       -0.069906      -1.480928       0.255708
C       -1.287036      -0.663672      -0.108590
C       -1.274874       0.679451      -0.177777
C       -0.010744       1.467979       0.076978
H       -2.178054      -1.216962      -0.425216
H       -0.225461      -2.006473       1.212953
H        0.036171      -2.266857      -0.499375
H       -0.049716       2.462523      -0.375541
H        0.123849       1.620860       1.168176
H       -2.168164       1.208836      -0.494405
C        1.260909      -0.652321       0.389032
C        1.206836       0.657849      -0.413806
H        1.442164      -0.392406       1.440112
H        2.066763      -1.305081       0.066569
H        1.083580       0.435493      -1.481096
H        2.123658       1.254053      -0.277928
16

C        0.018468      -1.505106       0.071568
C       -1.254772      -0.702834      -0.048582
C       -1.285462       0.633333      -0.085430
C       -0.048009       1.496988      -0.044066
H       -2.188019      -1.262697      -0.104884
H       -0.121593      -2.316432       0.799572
H        0.226662      -2.006336      -0.887554
H       -0.137346       2.309933      -0.778244
H        0.019548       1.994894       0.936681
H       -2.244726       1.146089      -0.151793
C        1.215907      -0.631805       0.479561
C        1.229547       0.684801      -0.310095
H        1.148086      -0.405550       1.552894
H        2.153161      -1.182749       0.332157
H        1.295894       0.458487      -1.383669
H        2.116007       1.280032      -0.058114
[GEOCONV]
energy
0.0
0.503684800147
3.78196533144
14.955700157
32.5976160289
42.6482348201
-3.77980194986
-41.9338831882
-45.7547594534
max-force
2.97529353585e-05
0.000403786900354
0.00109400309229
0.00185775120765
0.00239288181857
0.0034087648871
0.00781106470347
0.00440231358161
4.30845214786e-05
max-step
1000.0
1000.0
1000.0
1000.0
1000.0
1000.0
1000.0
1000.0
1000.0
