[Molden Format]
[Geometries] (XYZ)
16

C       -1.059909      -1.517238       0.052691
C       -1.829498      -0.594187      -0.539857
C       -2.012674       0.793571      -0.089868
C       -1.097540       1.540847       0.541127
H       -2.400519      -0.882442      -1.423438
H       -0.513588      -1.303954       0.968128
H       -0.966685      -2.521285      -0.351445
H       -1.321104       2.556154       0.856758
H       -0.094651       1.173853       0.744840
H       -2.981516       1.238092      -0.320817
C        3.018420      -0.332595       0.534388
C        2.482714       0.170110      -0.576438
H        3.891666       0.112702       1.005636
H        2.608498      -1.215827       1.019113
H        1.608118      -0.276199      -1.043622
H        2.895275       1.051231      -1.062768
16

C       -0.919682      -1.520419       0.089271
C       -1.757615      -0.627520      -0.454386
C       -1.898999       0.788265      -0.089938
C       -0.979106       1.565206       0.498643
H       -2.427186      -0.969103      -1.244414
H       -0.256031      -1.271974       0.912560
H       -0.886836      -2.545385      -0.269966
H       -1.195045       2.608043       0.713398
H        0.014956       1.210134       0.755655
H       -2.852717       1.240488      -0.363792
C        2.737568      -0.387085       0.503520
C        2.363433       0.228853      -0.616296
H        3.415589       0.085397       1.210828
H        2.392345      -1.386431       0.758983
H        1.682523      -0.228173      -1.328614
H        2.722380       1.225912      -0.860511
16

C       -0.827549      -1.580365       0.181828
C       -1.643003      -0.662230      -0.354926
C       -1.722104       0.778869      -0.099351
C       -0.831282       1.583870       0.496981
H       -2.324407      -1.004875      -1.136600
H       -0.197557      -1.398982       1.045652
H       -0.830855      -2.592785      -0.211602
H       -1.020648       2.653780       0.513209
H        0.066425       1.238018       0.996978
H       -2.599119       1.256127      -0.537417
C        2.432509      -0.405728       0.413320
C        2.194837       0.315233      -0.681131
H        2.884136       0.061363       1.286844
H        2.240142      -1.472410       0.481803
H        1.730028      -0.088835      -1.576490
H        2.496634       1.356910      -0.723254
16

C       -0.723415      -1.619928       0.271244
C       -1.510629      -0.687187      -0.298410
C       -1.537357       0.766173      -0.137792
C       -0.650615       1.575655       0.472051
H       -2.160215      -1.039335      -1.100926
H       -0.252643      -1.540613       1.246389
H       -0.701461      -2.605919      -0.185300
H       -0.762267       2.653047       0.352138
H        0.056464       1.256542       1.227405
H       -2.339686       1.255896      -0.693114
C        2.147322      -0.417600       0.338259
C        1.923531       0.404208      -0.686274
H        2.511523      -0.001483       1.281376
H        2.131714      -1.501639       0.284600
H        1.529779       0.063958      -1.640524
H        2.251277       1.433957      -0.649338
16

C       -0.574268      -1.609821       0.292378
C       -1.422301      -0.688656      -0.239115
C       -1.418182       0.750803      -0.153234
C       -0.465316       1.563412       0.378282
H       -2.111658      -1.074185      -0.991694
H       -0.181349      -1.620937       1.303191
H       -0.528259      -2.567707      -0.228681
H       -0.521750       2.623970       0.168162
H        0.114074       1.315537       1.259855
H       -2.201277       1.237363      -0.735670
C        1.882011      -0.455450       0.313730
C        1.687285       0.472837      -0.640514
H        2.144971      -0.096448       1.308088
H        2.039968      -1.513831       0.156374
H        1.368039       0.200221      -1.645531
H        2.079530       1.475640      -0.529140
16

C       -0.427042      -1.571345       0.325434
C       -1.342779      -0.674280      -0.220159
C       -1.321047       0.716084      -0.194501
C       -0.260640       1.475209       0.305061
H       -2.052282      -1.096610      -0.930109
H       -0.101404      -1.637133       1.377529
H       -0.345077      -2.504450      -0.230178
H       -0.198990       2.550890       0.077764
H        0.165406       1.229501       1.265270
H       -2.095355       1.217048      -0.770901
C        1.645006      -0.473680       0.325251
C        1.436084       0.557991      -0.582866
H        1.895308      -0.140513       1.317213
H        1.909031      -1.503450       0.140785
H        1.127773       0.338471      -1.600703
H        1.939980       1.511933      -0.453008
16

C       -0.160077      -1.450790       0.361712
C       -1.279729      -0.638306      -0.207009
C       -1.292285       0.701143      -0.238287
C       -0.077757       1.406678       0.204215
H       -2.008982      -1.164566      -0.830942
H       -0.100828      -1.629449       1.452964
H       -0.007215      -2.354170      -0.241502
H       -0.017478       2.466892      -0.035552
H        0.212932       1.232407       1.237539
H       -2.115142       1.235960      -0.709475
C        1.371179      -0.602198       0.358985
C        1.212490       0.614383      -0.505140
H        1.607045      -0.318260       1.392610
H        1.857627      -1.532231       0.030162
H        0.955196       0.411852      -1.548312
H        1.912364       1.444867      -0.364282
16

C       -0.071953      -1.474815       0.263157
C       -1.275759      -0.655487      -0.127731
C       -1.273796       0.679428      -0.196043
C       -0.014796       1.471816       0.082853
H       -2.164357      -1.210336      -0.426532
H       -0.255894      -1.964385       1.228646
H        0.035068      -2.291211      -0.464513
H       -0.051361       2.467292      -0.373877
H        0.099271       1.635497       1.167339
H       -2.168078       1.206339      -0.531478
C        1.253646      -0.664738       0.384875
C        1.209167       0.656131      -0.392279
H        1.448209      -0.431019       1.441304
H        2.080704      -1.296819       0.039448
H        1.106431       0.448943      -1.466907
H        2.130786       1.230758      -0.247096
16

C        0.018468      -1.505106       0.071568
C       -1.254772      -0.702834      -0.048582
C       -1.285462       0.633333      -0.085430
C       -0.048009       1.496988      -0.044066
H       -2.188019      -1.262697      -0.104884
H       -0.121593      -2.316432       0.799572
H        0.226662      -2.006336      -0.887554
H       -0.137346       2.309933      -0.778244
H        0.019548       1.994894       0.936681
H       -2.244726       1.146089      -0.151793
C        1.215907      -0.631805       0.479561
C        1.229547       0.684801      -0.310095
H        1.148086      -0.405550       1.552894
H        2.153161      -1.182749       0.332157
H        1.295894       0.458487      -1.383669
H        2.116007       1.280032      -0.058114
[GEOCONV]
energy
0.0
0.478945304407
3.56919814457
13.2963478225
30.1727704132
40.2686936947
-7.40050027132
-42.5714793013
-45.7547594534
max-force
2.97529353585e-05
0.000370442799956
0.00109581468515
0.00213850152517
0.0024397957016
0.0064418219428
0.00478686167603
0.00126952498196
4.30845214786e-05
max-step
1000.0
1000.0
1000.0
1000.0
1000.0
1000.0
1000.0
1000.0
1000.0
