[Molden Format]
[Geometries] (XYZ)
16

C       -1.059909      -1.517237       0.052691
C       -1.829498      -0.594187      -0.539856
C       -2.012674       0.793570      -0.089867
C       -1.097540       1.540846       0.541127
H       -2.400519      -0.882442      -1.423438
H       -0.513588      -1.303953       0.968128
H       -0.966686      -2.521284      -0.351445
H       -1.321105       2.556152       0.856758
H       -0.094651       1.173852       0.744840
H       -2.981516       1.238092      -0.320817
C        3.018420      -0.332595       0.534387
C        2.482714       0.170110      -0.576438
H        3.891666       0.112702       1.005635
H        2.608498      -1.215827       1.019112
H        1.608118      -0.276199      -1.043622
H        2.895276       1.051230      -1.062768
16

C       -0.940860      -1.553728       0.131665
C       -1.740308      -0.667337      -0.476073
C       -1.868548       0.763181      -0.160437
C       -0.975415       1.529173       0.480582
H       -2.390405      -1.026391      -1.275664
H       -0.295834      -1.276377       0.961616
H       -0.916410      -2.594367      -0.178466
H       -1.175791       2.580227       0.670585
H       -0.011406       1.152472       0.812036
H       -2.790416       1.229068      -0.507020
C        2.753977      -0.436298       0.439675
C        2.396673       0.247570      -0.646046
H        3.377453       0.001020       1.215736
H        2.440174      -1.465877       0.597248
H        1.769858      -0.188735      -1.418876
H        2.710815       1.276541      -0.804212
16

C       -0.959111      -1.626666       0.305508
C       -1.647149      -0.761778      -0.450618
C       -1.666712       0.704356      -0.329532
C       -0.900980       1.461996       0.468748
H       -2.279321      -1.167679      -1.242667
H       -0.320447      -1.307169       1.125497
H       -1.019423      -2.695570       0.127020
H       -1.006381       2.543364       0.482707
H       -0.149864       1.040002       1.130001
H       -2.385768       1.206338      -0.974945
C        2.573492      -0.522428       0.222202
C        2.279995       0.400657      -0.692462
H        3.007483      -0.261350       1.184029
H        2.397085      -1.581017       0.044173
H        1.849188       0.137281      -1.654010
H        2.461368       1.458031      -0.520132
16

C       -0.913111      -1.740197       0.376299
C       -1.628892      -0.937301      -0.423664
C       -1.592963       0.529511      -0.475763
C       -0.861697       1.344559       0.296443
H       -2.276335      -1.405336      -1.164994
H       -0.239393      -1.362802       1.139599
H       -1.003746      -2.819908       0.301655
H       -0.898165       2.421645       0.155630
H       -0.257185       0.981514       1.121816
H       -2.179294       0.975658      -1.277551
C        2.263556      -0.688374      -0.204365
C        2.051142       0.450460      -0.866269
H        2.571514      -0.686160       0.837946
H        2.153400      -1.663825      -0.673239
H        1.750472       0.467493      -1.910535
H        2.209825       1.417173      -0.395738
16

C       -0.725681      -1.649043       0.470844
C       -1.426846      -0.900963      -0.397445
C       -1.415492       0.562058      -0.487100
C       -0.674173       1.390098       0.267004
H       -1.957360      -1.418641      -1.195155
H       -0.271555      -1.242867       1.367254
H       -0.738150      -2.732084       0.394938
H       -0.676084       2.464066       0.087606
H       -0.248176       1.072400       1.213050
H       -1.935847       0.978919      -1.355397
C        2.043054      -0.722236      -0.090641
C        1.900014       0.518851      -0.562956
H        2.400388      -0.904044       0.921944
H        1.969121      -1.598657      -0.728076
H        1.669772       0.702605      -1.607893
H        2.212245       1.388988       0.008463
16

C       -0.455486      -1.560344       0.456414
C       -1.315421      -0.915277      -0.412515
C       -1.342702       0.485476      -0.549712
C       -0.493852       1.307916       0.169719
H       -1.832638      -1.508254      -1.165995
H       -0.163782      -1.107594       1.396603
H       -0.381254      -2.644748       0.433522
H       -0.458341       2.374029      -0.040592
H       -0.188443       1.036777       1.173980
H       -1.883088       0.902969      -1.398008
C        1.612550      -0.798489      -0.232502
C        1.532114       0.565154      -0.462011
H        2.086117      -1.164723       0.673898
H        1.591966      -1.498462      -1.059850
H        1.419882       0.938296      -1.473885
H        1.998034       1.257490       0.233093
16

C       -0.149549      -1.466788       0.418136
C       -1.226423      -0.770374      -0.376609
C       -1.218936       0.571794      -0.440926
C       -0.083249       1.295899       0.185406
H       -1.879153      -1.367694      -1.019368
H       -0.275008      -1.313007       1.493937
H       -0.113227      -2.524357       0.205165
H       -0.053842       2.369873      -0.003255
H        0.008319       1.094666       1.274220
H       -1.879077       1.079130      -1.142033
C        1.304232      -0.845307       0.121258
C        1.247966       0.610347      -0.366555
H        1.820710      -0.894724       1.084121
H        1.729393      -1.534962      -0.614581
H        1.199199       0.706280      -1.432619
H        2.050906       1.222168       0.054512
16

C       -0.077828      -1.514624       0.265687
C       -1.243966      -0.724212      -0.271874
C       -1.261944       0.613017      -0.323486
C       -0.046762       1.418515       0.080367
H       -2.090097      -1.294992      -0.650340
H       -0.328039      -1.871271       1.277423
H        0.051291      -2.422054      -0.341111
H       -0.063064       2.420011      -0.361097
H       -0.019912       1.561347       1.170953
H       -2.124231       1.131344      -0.740706
C        1.261419      -0.722576       0.356229
C        1.222257       0.653843      -0.325718
H        1.513378      -0.586482       1.415442
H        2.061149      -1.330728      -0.084305
H        1.233039       0.536233      -1.414041
H        2.109597       1.235498      -0.048236
16

C        0.018468      -1.505105       0.071568
C       -1.254771      -0.702834      -0.048582
C       -1.285462       0.633332      -0.085430
C       -0.048009       1.496987      -0.044066
H       -2.188018      -1.262696      -0.104884
H       -0.121592      -2.316431       0.799572
H        0.226663      -2.006335      -0.887554
H       -0.137346       2.309932      -0.778244
H        0.019549       1.994893       0.936681
H       -2.244725       1.146088      -0.151793
C        1.215907      -0.631805       0.479561
C        1.229547       0.684800      -0.310094
H        1.148085      -0.405550       1.552893
H        2.153160      -1.182749       0.332157
H        1.295893       0.458486      -1.383669
H        2.116006       1.280031      -0.058114
[GEOCONV]
energy
0.0
0.4972869476187043
1.1585270247305743
2.2965096007683314
8.007410346646793
19.88991810870357
-32.187721816211706
-41.73170975060202
-45.754759598348755
max-force
2.9652714661116703e-05
0.0004695282046706142
0.0007859015722479739
0.0011616358668118498
0.002682383322929795
0.0002973106135181914
0.006795070592298535
0.0015187445007537677
4.304522126161109e-05
max-step
1000.0
1000.0
1000.0
1000.0
1000.0
1000.0
1000.0
1000.0
1000.0
