[Molden Format]
[Geometries] (XYZ)
16

C       -1.059909      -1.517238       0.052691
C       -1.829498      -0.594187      -0.539857
C       -2.012674       0.793571      -0.089868
C       -1.097540       1.540847       0.541127
H       -2.400519      -0.882442      -1.423438
H       -0.513588      -1.303954       0.968128
H       -0.966685      -2.521285      -0.351445
H       -1.321104       2.556154       0.856758
H       -0.094651       1.173853       0.744840
H       -2.981516       1.238092      -0.320817
C        3.018420      -0.332595       0.534388
C        2.482714       0.170110      -0.576438
H        3.891666       0.112702       1.005636
H        2.608498      -1.215827       1.019113
H        1.608118      -0.276199      -1.043622
H        2.895275       1.051231      -1.062768
16

C       -0.895507      -1.527419       0.075185
C       -1.739950      -0.629372      -0.448421
C       -1.882923       0.783523      -0.072262
C       -0.955906       1.570109       0.495501
H       -2.407215      -0.960239      -1.250179
H       -0.239374      -1.302240       0.916318
H       -0.855437      -2.542348      -0.314256
H       -1.176016       2.614274       0.695600
H        0.039176       1.217753       0.752741
H       -2.839375       1.232435      -0.339063
C        2.723786      -0.384645       0.516774
C        2.330425       0.217096      -0.605277
H        3.427058       0.097459       1.195190
H        2.375262      -1.374426       0.798383
H        1.622505      -0.235093      -1.293162
H        2.708318       1.200784      -0.876819
16

C       -0.754473      -1.584675       0.088885
C       -1.622233      -0.658604      -0.354019
C       -1.728599       0.773143      -0.041358
C       -0.794307       1.612382       0.443590
H       -2.333506      -0.981869      -1.115752
H       -0.171318      -1.495266       1.002772
H       -0.713307      -2.544178      -0.420383
H       -1.012598       2.678484       0.445166
H        0.142249       1.299891       0.901682
H       -2.674756       1.218876      -0.345818
C        2.430141      -0.396429       0.489306
C        2.129801       0.264614      -0.626997
H        2.992131       0.109979       1.272875
H        2.223561      -1.452703       0.649691
H        1.544084      -0.158061      -1.439280
H        2.539043       1.259168      -0.794553
16

C       -0.642754      -1.629527       0.153143
C       -1.501103      -0.682025      -0.285860
C       -1.563301       0.760800      -0.064101
C       -0.629067       1.619532       0.404051
H       -2.236959      -1.019903      -1.018847
H       -0.211159      -1.688484       1.148105
H       -0.593395      -2.543535      -0.432255
H       -0.808664       2.683082       0.261764
H        0.145392       1.379671       1.117792
H       -2.476422       1.216436      -0.447338
C        2.158935      -0.414690       0.432455
C        1.902922       0.348918      -0.630781
H        2.622428       0.064855       1.294061
H        2.155751      -1.503154       0.463235
H        1.408226      -0.033730      -1.523640
H        2.360593       1.330522      -0.730643
16

C       -0.504608      -1.624197       0.187349
C       -1.410303      -0.686305      -0.237031
C       -1.441711       0.738752      -0.087498
C       -0.446488       1.590710       0.328265
H       -2.186775      -1.064649      -0.903615
H       -0.194563      -1.793815       1.210794
H       -0.406840      -2.495266      -0.465111
H       -0.559122       2.652789       0.112115
H        0.188326       1.409053       1.177735
H       -2.345412       1.209157      -0.471048
C        1.885916      -0.442905       0.405640
C        1.668216       0.425820      -0.606705
H        2.260907       0.006178       1.330895
H        2.052578      -1.510533       0.345919
H        1.242883       0.081132      -1.548776
H        2.194189       1.375566      -0.659964
16

C       -0.342428      -1.569117       0.230934
C       -1.338401      -0.667863      -0.216272
C       -1.354187       0.703787      -0.116192
C       -0.248674       1.508003       0.259329
H       -2.127007      -1.102677      -0.836151
H       -0.112369      -1.793698       1.267947
H       -0.172728      -2.404164      -0.452133
H       -0.270869       2.572141       0.022455
H        0.287064       1.327764       1.183885
H       -2.253683       1.213262      -0.461128
C        1.628648      -0.474971       0.414170
C        1.431611       0.503873      -0.581639
H        1.935209      -0.053216       1.374529
H        1.898175      -1.518233       0.303728
H        1.051392       0.190368      -1.551633
H        2.012169       1.424857      -0.593312
16

C       -0.151514      -1.471841       0.242030
C       -1.279033      -0.649501      -0.163584
C       -1.301706       0.695791      -0.114060
C       -0.101791       1.423101       0.152060
H       -2.105420      -1.145670      -0.642954
H       -0.049204      -1.781644       1.252488
H        0.048784      -2.271066      -0.488934
H       -0.070369       2.443902      -0.160490
H        0.297120       1.336487       1.134166
H       -2.200906       1.230820      -0.400762
C        1.389506      -0.563916       0.411145
C        1.247367       0.567897      -0.522467
H        1.620039      -0.181524       1.406521
H        1.842142      -1.504531       0.223796
H        0.976908       0.301264      -1.518539
H        1.948476       1.414482      -0.459410
16

C       -0.052600      -1.469863       0.209813
C       -1.290457      -0.652604      -0.066356
C       -1.292457       0.680203      -0.101138
C       -0.011983       1.450328       0.041736
H       -2.198897      -1.196342      -0.334458
H       -0.141668      -2.047574       1.139038
H        0.106652      -2.176333      -0.618880
H       -0.028897       2.428747      -0.449148
H        0.194829       1.630561       1.107559
H       -2.220337       1.222565      -0.310017
C        1.272026      -0.633479       0.406509
C        1.212424       0.623383      -0.455974
H        1.406609      -0.343442       1.452979
H        2.036814      -1.371741       0.139635
H        1.101148       0.358462      -1.509700
H        2.059816       1.310741      -0.322642
16

C        0.018468      -1.505106       0.071568
C       -1.254772      -0.702834      -0.048582
C       -1.285462       0.633333      -0.085430
C       -0.048009       1.496988      -0.044066
H       -2.188019      -1.262697      -0.104884
H       -0.121593      -2.316432       0.799572
H        0.226662      -2.006336      -0.887554
H       -0.137346       2.309933      -0.778244
H        0.019548       1.994894       0.936681
H       -2.244726       1.146089      -0.151793
C        1.215907      -0.631805       0.479561
C        1.229547       0.684801      -0.310095
H        1.148086      -0.405550       1.552894
H        2.153161      -1.182749       0.332157
H        1.295894       0.458487      -1.383669
H        2.116007       1.280032      -0.058114
[GEOCONV]
energy
0.0
0.662486088171
7.60766330911
24.6328387042
47.2733179309
50.4187853284
6.7924653978
-39.169992315
-45.7547594534
max-force
2.97529353585e-05
0.00132638374681
0.00218612586256
0.00266454546791
0.00380806324573
0.00638546408722
0.0191542354191
0.00303408980548
4.30845214786e-05
max-step
1000.0
1000.0
1000.0
1000.0
1000.0
1000.0
1000.0
1000.0
1000.0
