[Molden Format]
[Geometries] (XYZ)
16

C       -1.059909      -1.517238       0.052691
C       -1.829498      -0.594187      -0.539857
C       -2.012674       0.793571      -0.089868
C       -1.097540       1.540847       0.541127
H       -2.400519      -0.882442      -1.423438
H       -0.513588      -1.303954       0.968128
H       -0.966685      -2.521285      -0.351445
H       -1.321104       2.556154       0.856758
H       -0.094651       1.173853       0.744840
H       -2.981516       1.238092      -0.320817
C        3.018420      -0.332595       0.534388
C        2.482714       0.170110      -0.576438
H        3.891666       0.112702       1.005636
H        2.608498      -1.215827       1.019113
H        1.608118      -0.276199      -1.043622
H        2.895275       1.051231      -1.062768
16

C       -0.934778      -1.529956       0.095586
C       -1.767059      -0.637358      -0.456649
C       -1.905930       0.781192      -0.100315
C       -0.989772       1.554809       0.496122
H       -2.436872      -0.981763      -1.245588
H       -0.270953      -1.275838       0.918447
H       -0.903867      -2.556919      -0.256809
H       -1.202865       2.599090       0.708170
H        0.000371       1.195304       0.763493
H       -2.855735       1.235008      -0.383966
C        2.731781      -0.397553       0.492490
C        2.365574       0.227866      -0.625060
H        3.395270       0.070376       1.215446
H        2.392011      -1.402910       0.730370
H        1.697714      -0.228158      -1.350068
H        2.716031       1.231606      -0.854130
16

C       -0.900430      -1.602655       0.236065
C       -1.666597      -0.680217      -0.360703
C       -1.715455       0.770169      -0.138245
C       -0.848747       1.548724       0.518273
H       -2.348034      -1.026906      -1.139003
H       -0.232497      -1.384728       1.072542
H       -0.941361      -2.633292      -0.099434
H       -0.998210       2.627521       0.532774
H        0.016064       1.168659       1.051441
H       -2.554304       1.260592      -0.633910
C        2.441137      -0.406470       0.371729
C        2.240867       0.347496      -0.707023
H        2.817884       0.032181       1.288531
H        2.258933      -1.477501       0.392973
H        1.853892      -0.038323      -1.643364
H        2.468195       1.409946      -0.684651
16

C       -0.812896      -1.670960       0.297395
C       -1.572843      -0.741196      -0.305045
C       -1.563837       0.718626      -0.183881
C       -0.693847       1.512617       0.456498
H       -2.211424      -1.095838      -1.115317
H       -0.268244      -1.530123       1.235069
H       -0.840529      -2.684296      -0.093514
H       -0.757002       2.591956       0.323158
H       -0.011105       1.166311       1.224084
H       -2.298710       1.209871      -0.826214
C        2.123775      -0.467701       0.270640
C        1.943948       0.402234      -0.721284
H        2.400790      -0.105824       1.254007
H        2.116509      -1.547305       0.160119
H        1.635472       0.112669      -1.721052
H        2.196429       1.449723      -0.588103
16

C       -0.693493      -1.663963       0.342110
C       -1.483450      -0.745435      -0.266605
C       -1.431792       0.700243      -0.234272
C       -0.496225       1.470175       0.369784
H       -2.142255      -1.135901      -1.044593
H       -0.223157      -1.563424       1.323305
H       -0.712688      -2.668295      -0.072446
H       -0.462928       2.543469       0.182549
H       -0.012920       1.166499       1.291152
H       -2.132273       1.184557      -0.916917
C        1.879334      -0.491041       0.244480
C        1.659397       0.486363      -0.648769
H        2.126315      -0.204354       1.260235
H        2.014199      -1.544798       0.027239
H        1.381649       0.275507      -1.676971
H        2.014349       1.496820      -0.464810
16

C       -0.586288      -1.644824       0.373478
C       -1.406393      -0.727046      -0.236377
C       -1.321002       0.681249      -0.283226
C       -0.278584       1.382964       0.264375
H       -2.143806      -1.165003      -0.929501
H       -0.080245      -1.580665       1.374068
H       -0.672027      -2.620429      -0.042075
H       -0.153853       2.451716       0.058138
H        0.021226       1.125057       1.278915
H       -2.005622       1.150607      -0.979593
C        1.692030      -0.497742       0.265534
C        1.412304       0.610551      -0.547031
H        1.931407      -0.268974       1.270976
H        1.966460      -1.504397      -0.029904
H        1.186200       0.478210      -1.576002
H        1.924590       1.560679      -0.326899
16

C       -0.241110      -1.472881       0.386950
C       -1.310431      -0.667406      -0.238701
C       -1.294520       0.677439      -0.290502
C       -0.108169       1.364294       0.219013
H       -2.025777      -1.206135      -0.874869
H       -0.147122      -1.521978       1.477327
H       -0.161071      -2.445068      -0.090459
H       -0.010767       2.443737       0.033107
H        0.093021       1.142935       1.279071
H       -2.031061       1.186370      -0.896303
C        1.367070      -0.635782       0.307117
C        1.204084       0.612721      -0.494162
H        1.640316      -0.413397       1.323837
H        1.855762      -1.526682      -0.075941
H        1.013244       0.474049      -1.552602
H        1.933858       1.407573      -0.296939
16

C       -0.106307      -1.485362       0.269626
C       -1.290275      -0.657614      -0.163310
C       -1.277765       0.677486      -0.227078
C       -0.025155       1.451525       0.087662
H       -2.172010      -1.205497      -0.497557
H       -0.299447      -1.933040       1.257658
H        0.011724      -2.325003      -0.425848
H       -0.032580       2.452775      -0.360808
H        0.068906       1.594355       1.177059
H       -2.150082       1.208699      -0.601292
C        1.245928      -0.684992       0.388076
C        1.204503       0.636078      -0.384095
H        1.442602      -0.470947       1.444936
H        2.052756      -1.339825       0.033074
H        1.128226       0.444466      -1.462881
H        2.108299       1.230932      -0.206362
16

C        0.018468      -1.505106       0.071568
C       -1.254772      -0.702834      -0.048582
C       -1.285462       0.633333      -0.085430
C       -0.048009       1.496988      -0.044066
H       -2.188019      -1.262697      -0.104884
H       -0.121593      -2.316432       0.799572
H        0.226662      -2.006336      -0.887554
H       -0.137346       2.309933      -0.778244
H        0.019548       1.994894       0.936681
H       -2.244726       1.146089      -0.151793
C        1.215907      -0.631805       0.479561
C        1.229547       0.684801      -0.310095
H        1.148086      -0.405550       1.552894
H        2.153161      -1.182749       0.332157
H        1.295894       0.458487      -1.383669
H        2.116007       1.280032      -0.058114
[GEOCONV]
energy
0.0
0.47270503582
2.39015918429
9.29821870089
23.1607916788
37.6530959005
-8.96954296468
-41.8665045624
-45.7547594534
max-force
2.97529353585e-05
0.000479549593338
0.00217388603515
0.00269906561073
0.002700715203
0.0148866150397
0.00463745359377
0.00110218321845
4.30845214786e-05
max-step
1000.0
1000.0
1000.0
1000.0
1000.0
1000.0
1000.0
1000.0
1000.0
