[Molden Format]
[Geometries] (XYZ)
16

C       -1.059909      -1.517238       0.052691
C       -1.829498      -0.594187      -0.539857
C       -2.012674       0.793571      -0.089868
C       -1.097540       1.540847       0.541127
H       -2.400519      -0.882442      -1.423438
H       -0.513588      -1.303954       0.968128
H       -0.966685      -2.521285      -0.351445
H       -1.321104       2.556154       0.856758
H       -0.094651       1.173853       0.744840
H       -2.981516       1.238092      -0.320817
C        3.018420      -0.332595       0.534388
C        2.482714       0.170110      -0.576438
H        3.891666       0.112702       1.005636
H        2.608498      -1.215827       1.019113
H        1.608118      -0.276199      -1.043622
H        2.895275       1.051231      -1.062768
16

C       -0.910895      -1.524466       0.077281
C       -1.754936      -0.628177      -0.450708
C       -1.897443       0.786032      -0.079807
C       -0.973521       1.569187       0.493757
H       -2.427056      -0.964223      -1.242348
H       -0.247014      -1.288273       0.904364
H       -0.876712      -2.543503      -0.298141
H       -1.193287       2.613275       0.698836
H        0.023592       1.219325       0.744883
H       -2.853640       1.235159      -0.346981
C        2.735591      -0.386365       0.510128
C        2.354392       0.221329      -0.612331
H        3.423083       0.091245       1.203993
H        2.388453      -1.381427       0.778721
H        1.661160      -0.233702      -1.314053
H        2.722227       1.212050      -0.868427
16

C       -0.799876      -1.582785       0.141579
C       -1.637879      -0.660973      -0.353737
C       -1.728908       0.776712      -0.075990
C       -0.820998       1.598767       0.474142
H       -2.335577      -0.997667      -1.124633
H       -0.185105      -1.438891       1.020755
H       -0.790102      -2.580316      -0.299552
H       -1.026434       2.666559       0.487796
H        0.090659       1.273474       0.957993
H       -2.634132       1.240889      -0.463189
C        2.428080      -0.401889       0.441299
C        2.173571       0.293309      -0.665480
H        2.919031       0.081325       1.280267
H        2.231221      -1.469198       0.547170
H        1.670115      -0.121545      -1.529239
H        2.517425       1.317790      -0.756326
16

C       -0.683533      -1.621646       0.203330
C       -1.513018      -0.682757      -0.293915
C       -1.556802       0.765704      -0.099796
C       -0.642462       1.599547       0.436309
H       -2.210377      -1.026651      -1.057779
H       -0.211703      -1.596642       1.180038
H       -0.651537      -2.576625      -0.311221
H       -0.790867       2.670199       0.313359
H        0.112245       1.314730       1.155602
H       -2.419289       1.240129      -0.568259
C        2.147915      -0.415161       0.387911
C        1.914130       0.371360      -0.664117
H        2.550561       0.037625       1.292186
H        2.126498      -1.497159       0.384038
H        1.479775       0.007849      -1.585075
H        2.298185       1.388588      -0.686683
16

C       -0.546903      -1.619246       0.246773
C       -1.415806      -0.686136      -0.241923
C       -1.428015       0.747087      -0.121504
C       -0.455795       1.574220       0.365992
H       -2.140456      -1.064465      -0.966867
H       -0.188647      -1.700906       1.266181
H       -0.476748      -2.540894      -0.334609
H       -0.537588       2.642501       0.161579
H        0.152283       1.347882       1.229048
H       -2.271259       1.231860      -0.612983
C        1.882645      -0.439610       0.359915
C        1.674041       0.447064      -0.630402
H        2.202648      -0.030542       1.317325
H        2.032260      -1.508078       0.262044
H        1.301477       0.129424      -1.598970
H        2.119282       1.435733      -0.601984
16

C       -0.387408      -1.570237       0.281340
C       -1.343787      -0.668136      -0.219657
C       -1.343249       0.714397      -0.153599
C       -0.259682       1.499837       0.291696
H       -2.083395      -1.098922      -0.898916
H       -0.114493      -1.721223       1.319334
H       -0.255197      -2.453680      -0.346316
H       -0.261006       2.563998       0.054967
H        0.239098       1.293398       1.229387
H       -2.181205       1.228922      -0.621821
C        1.640710      -0.475306       0.373602
C        1.439942       0.521495      -0.588880
H        1.915241      -0.094257       1.359071
H        1.903661      -1.513965       0.220091
H        1.091234       0.241890      -1.580352
H        1.967940       1.470591      -0.532783
16

C       -0.148129      -1.473733       0.317474
C       -1.305991      -0.639372      -0.183141
C       -1.318214       0.698766      -0.195602
C       -0.085779       1.424735       0.186753
H       -2.091194      -1.166921      -0.753401
H       -0.065301      -1.742685       1.372998
H        0.020686      -2.328087      -0.362713
H       -0.032510       2.496319      -0.060807
H        0.248382       1.262812       1.210068
H       -2.174308       1.234500      -0.593342
C        1.395836      -0.578581       0.390658
C        1.243519       0.592921      -0.522585
H        1.635698      -0.238974       1.418017
H        1.875642      -1.539169       0.135065
H        0.960485       0.337827      -1.538201
H        1.945019       1.441087      -0.440459
16

C       -0.062750      -1.479732       0.252664
C       -1.277695      -0.658701      -0.092764
C       -1.275102       0.682772      -0.154866
C       -0.009112       1.466868       0.063690
H       -2.168517      -1.210029      -0.408159
H       -0.206626      -2.033816       1.195090
H        0.066774      -2.237607      -0.531108
H       -0.045558       2.459955      -0.388987
H        0.141928       1.619567       1.148763
H       -2.183262       1.208578      -0.432701
C        1.254909      -0.645759       0.396401
C        1.202435       0.645118      -0.436722
H        1.408029      -0.378084       1.448568
H        2.055982      -1.333872       0.091364
H        1.075874       0.406616      -1.502661
H        2.101016       1.259715      -0.300092
16

C        0.018468      -1.505106       0.071568
C       -1.254772      -0.702834      -0.048582
C       -1.285462       0.633333      -0.085430
C       -0.048009       1.496988      -0.044066
H       -2.188019      -1.262697      -0.104884
H       -0.121593      -2.316432       0.799572
H        0.226662      -2.006336      -0.887554
H       -0.137346       2.309933      -0.778244
H        0.019548       1.994894       0.936681
H       -2.244726       1.146089      -0.151793
C        1.215907      -0.631805       0.479561
C        1.229547       0.684801      -0.310095
H        1.148086      -0.405550       1.552894
H        2.153161      -1.182749       0.332157
H        1.295894       0.458487      -1.383669
H        2.116007       1.280032      -0.058114
[GEOCONV]
energy
0.0
0.538960799313
4.90781934411
17.3642723455
36.3921023392
44.9050955215
-1.40325895118
-41.5491681665
-45.7547594534
max-force
2.97529353585e-05
0.000400047731941
0.00204950873024
0.00249429719747
0.00299278486727
0.00416713951399
0.00876112745558
0.00319378192424
4.30845214786e-05
max-step
1000.0
1000.0
1000.0
1000.0
1000.0
1000.0
1000.0
1000.0
1000.0
