[Molden Format]
[Geometries] (XYZ)
16

C       -1.059909      -1.517237       0.052691
C       -1.829498      -0.594187      -0.539856
C       -2.012674       0.793570      -0.089867
C       -1.097540       1.540846       0.541127
H       -2.400519      -0.882442      -1.423438
H       -0.513588      -1.303953       0.968128
H       -0.966686      -2.521284      -0.351445
H       -1.321105       2.556152       0.856758
H       -0.094651       1.173852       0.744840
H       -2.981516       1.238092      -0.320817
C        3.018420      -0.332595       0.534387
C        2.482714       0.170110      -0.576438
H        3.891666       0.112702       1.005635
H        2.608498      -1.215827       1.019112
H        1.608118      -0.276199      -1.043622
H        2.895276       1.051230      -1.062768
16

C       -0.906879      -1.537102       0.218127
C       -1.711702      -0.651133      -0.383391
C       -1.841688       0.776383      -0.061685
C       -0.943466       1.542194       0.571702
H       -2.365173      -1.008717      -1.180445
H       -0.261696      -1.261288       1.047856
H       -0.879678      -2.576430      -0.096422
H       -1.145551       2.591382       0.768804
H        0.026497       1.166463       0.886743
H       -2.769923       1.240799      -0.394396
C        2.793785      -0.423469       0.532664
C        2.435488       0.256613      -0.554836
H        3.426824       0.013340       1.301121
H        2.474830      -1.449764       0.697612
H        1.798034      -0.179466      -1.319600
H        2.756707       1.281981      -0.721523
16

C       -0.907978      -1.568932       0.449787
C       -1.600790      -0.696611      -0.297082
C       -1.633978       0.764131      -0.151361
C       -0.850000       1.517306       0.634017
H       -2.228077      -1.093402      -1.094774
H       -0.279456      -1.254771       1.278185
H       -0.955257      -2.636803       0.252815
H       -0.971391       2.596490       0.670262
H       -0.064781       1.096726       1.254976
H       -2.383202       1.270691      -0.759901
C        2.620302      -0.463899       0.428684
C        2.340702       0.447860      -0.504624
H        3.053059      -0.188708       1.387050
H        2.432616      -1.522797       0.269418
H        1.907167       0.172926      -1.462816
H        2.533940       1.507691      -0.349324
16

C       -0.896603      -1.524909       0.539685
C       -1.588737      -0.708549      -0.268957
C       -1.589918       0.759047      -0.267781
C       -0.857494       1.570289       0.508722
H       -2.198410      -1.163832      -1.050076
H       -0.302515      -1.158732       1.370546
H       -0.948541      -2.603259       0.417633
H       -0.920554       2.649375       0.401825
H       -0.217323       1.197278       1.301733
H       -2.223273       1.212750      -1.029200
C        2.264086      -0.466956       0.075721
C        2.049226       0.663267      -0.599825
H        2.612677      -0.453633       1.107652
H        2.144169      -1.445237      -0.379847
H        1.724733       0.665392      -1.636064
H        2.236748       1.636248      -0.156820
16

C       -0.729254      -1.472971       0.609286
C       -1.425648      -0.718023      -0.262767
C       -1.409945       0.740646      -0.350746
C       -0.683133       1.570611       0.407943
H       -1.952895      -1.235295      -1.059438
H       -0.292135      -1.076939       1.518397
H       -0.738799      -2.556486       0.520574
H       -0.680478       2.642865       0.225971
H       -0.243539       1.245460       1.344833
H       -1.932470       1.149271      -1.222016
C        2.040556      -0.530005       0.073817
C        1.897441       0.699550      -0.429964
H        2.387154      -0.682788       1.098462
H        1.989542      -1.419818      -0.544412
H        1.664892       0.863430      -1.477021
H        2.187286       1.580253       0.128592
16

C       -0.494573      -1.253592       0.274369
C       -1.438106      -0.629677      -0.521963
C       -1.597262       0.766904      -0.533336
C       -0.805231       1.598984       0.238402
H       -1.916272      -1.204411      -1.313787
H       -0.234620      -0.848230       1.245685
H       -0.314419      -2.320589       0.166918
H       -0.877849       2.678213       0.126099
H       -0.447959       1.274054       1.209094
H       -2.198197       1.206640      -1.328197
C        1.459084      -0.272929      -0.397462
C        1.264982       1.096309      -0.493003
H        1.996396      -0.683796       0.452984
H        1.461512      -0.890512      -1.288130
H        1.088336       1.549320      -1.462453
H        1.693272       1.759921       0.253128
16

C       -0.128020      -1.352836       0.535010
C       -1.208991      -0.707998      -0.285234
C       -1.251937       0.628453      -0.381660
C       -0.147052       1.402802       0.243812
H       -1.828145      -1.344815      -0.916214
H       -0.249527      -1.140341       1.605020
H       -0.062395      -2.421577       0.379059
H       -0.170164       2.477252       0.065711
H       -0.070498       1.229293       1.318320
H       -1.914577       1.094084      -1.106833
C        1.322731      -0.680586       0.243788
C        1.205657       0.749426      -0.294096
H        1.823038      -0.669882       1.213027
H        1.806180      -1.387838      -0.446164
H        1.149397       0.788070      -1.382300
H        2.011432       1.389491       0.066335
16

C       -0.071172      -1.464291       0.323745
C       -1.240540      -0.674157      -0.215895
C       -1.255657       0.662724      -0.270160
C       -0.038780       1.462627       0.131449
H       -2.085797      -1.244107      -0.591293
H       -0.330065      -1.818032       1.333487
H        0.053630      -2.374759      -0.274788
H       -0.060789       2.469571      -0.298308
H       -0.016124       1.596950       1.224417
H       -2.115701       1.183904      -0.692361
C        1.265406      -0.676027       0.404558
C        1.219306       0.696613      -0.288786
H        1.526387      -0.524656       1.460937
H        2.068997      -1.282319      -0.033621
H        1.203415       0.562345      -1.376150
H        2.120914       1.270766      -0.041625
16

C        0.018468      -1.505105       0.071568
C       -1.254771      -0.702834      -0.048582
C       -1.285462       0.633332      -0.085430
C       -0.048009       1.496987      -0.044066
H       -2.188018      -1.262696      -0.104884
H       -0.121592      -2.316431       0.799572
H        0.226663      -2.006335      -0.887554
H       -0.137346       2.309932      -0.778244
H        0.019549       1.994893       0.936681
H       -2.244725       1.146088      -0.151793
C        1.215907      -0.631805       0.479561
C        1.229547       0.684800      -0.310094
H        1.148085      -0.405550       1.552893
H        2.153160      -1.182749       0.332157
H        1.295893       0.458486      -1.383669
H        2.116006       1.280031      -0.058114
[GEOCONV]
energy
0.0
0.46939450918580405
1.1307827801792882
2.399161074368749
7.906924527458614
19.734972664969973
-32.60149145277683
-41.696544860780705
-45.754759598348755
max-force
2.96527146611167e-05
0.0004527466699235139
0.0010138624257887458
0.001087335590091807
0.003237869926062442
0.0004065844197445157
0.004834088901967176
0.0017517101200941686
4.3045221324896654e-05
max-step
1000.0
1000.0
1000.0
1000.0
1000.0
1000.0
1000.0
1000.0
1000.0
