[Molden Format]
[Geometries] (XYZ)
9

C       -0.854302      -0.327494      -0.086935
C        0.410534       0.523178      -0.161295
H       -1.751849       0.264657      -0.301635
H       -0.973028      -0.763652       0.913937
H       -0.799512      -1.152911      -0.804962
O        1.587149      -0.243515       0.078068
H        0.348113       1.360719       0.552921
H        0.526173       0.951296      -1.161771
H        1.506721      -0.612278       0.971670
9

C       -0.544066      -0.414993       0.052967
C        0.501302       0.640171      -0.017850
H       -1.591558       0.071614      -0.047695
H       -0.689437      -0.803496       1.075205
H       -0.581722      -1.234684      -0.671365
O        1.212829      -0.493578       0.102543
H        0.741722       1.451300       0.695160
H        0.573800       1.116166      -1.010422
H        0.733469      -0.360313       0.956321
9

C       -0.517086      -0.670332       0.156677
C        0.615692       0.858062       0.212694
H       -1.468937      -0.015810       0.092007
H       -0.759806      -1.095818       1.160482
H       -0.688309      -1.490124      -0.569733
O        0.953951      -0.598537       0.117845
H        1.191282       1.613982       0.805913
H        0.612191       1.262991      -0.802833
H        0.537783       0.099911       1.150824
9

C       -0.607767      -0.914428       0.228452
C        0.764736       1.019540       0.419962
H       -1.371820      -0.129391       0.180290
H       -0.853733      -1.429720       1.187999
H       -0.806944      -1.669785      -0.557405
O        0.705135      -0.619579       0.150244
H        1.565457       1.692265       0.824404
H        0.587782       1.322864      -0.610772
H        0.418555       0.647687       1.339751
9

C       -0.740475      -0.507918       0.883126
C        1.153086       0.398314      -0.226661
H       -1.035403       0.550840       0.873268
H       -0.557496      -0.802357       1.928280
H       -1.577393      -1.100221       0.494027
O        0.402838      -0.755877       0.084508
H        2.144083       0.063837      -0.547806
H        0.687892       0.981378      -1.036822
H        1.287441       1.062935       0.641965
[GEOCONV]
energy
0.0
117.30762653096463
175.683414934756
76.54076946247369
8.511034891474992
max-force
0.0
0.005760219126014354
0.00917318215184953
0.011106431622177003
0.00045157524392103947
max-step
1000.0
1000.0
1000.0
1000.0
1000.0
