[Molden Format]
[Geometries] (XYZ)
9

C        0.045039      -0.527107       0.521477
C       -0.026328       0.322606      -0.499540
H        0.989764      -0.955360       0.848700
H       -0.968709       0.753268      -0.826400
H        0.857657       0.620131      -1.059824
O       -0.329885       3.161067       1.103001
H       -0.868505       3.747376       0.550951
H        0.538144       3.171239       0.673617
H       -0.836139      -0.823362       1.084892
9

C        0.027806      -0.531782       0.576275
C       -0.075959       0.535931      -0.212540
H        1.001901      -0.938034       0.879412
H       -1.043142       0.918165      -0.510532
H        0.802831       1.059315      -0.630289
O       -0.299677       2.965994       0.943223
H       -0.776146       3.650361       0.456593
H        0.553826       2.908233       0.505614
H       -0.833996      -1.048438       0.985936
9

C        0.050849      -0.391300       0.607187
C       -0.137637       0.725090      -0.096039
H        1.030847      -0.727885       0.949187
H       -1.096773       1.052742      -0.489263
H        0.784046       1.443282      -0.382917
O       -0.274218       2.702437       0.868210
H       -0.645142       3.528021       0.475329
H        0.559361       2.457749       0.281285
H       -0.805531      -1.016312       0.942620
9

C        0.054202      -0.259782       0.609623
C       -0.255991       0.864115      -0.032649
H        1.058786      -0.505434       0.946646
H       -1.225931       1.122099      -0.453605
H        1.355738       1.822692      -0.524649
O       -0.252363       2.459504       0.847643
H       -0.707704       3.220743       0.439711
H        1.102324       2.436878       0.024437
H       -0.738562      -0.974455       0.858592
9

C        0.089821      -0.144601       0.507467
C       -0.400247       1.025360       0.082418
H        1.096894      -0.232980       0.908782
H       -1.387008       1.095918      -0.383801
H        2.017507       2.074068      -0.781321
O       -0.119954       2.285279       0.690886
H       -0.675700       2.936731       0.236302
H        1.690814       2.490117      -0.271801
H       -0.530198      -1.029763       0.472256
9

C        0.222129      -0.119402       0.322793
C       -0.575539       0.946319       0.280222
H        1.123596      -0.130295       0.926688
H       -1.484379       0.960155      -0.321591
H        2.405560       2.712115      -0.696379
O       -0.321251       2.083531       1.002335
H       -0.933607       2.777390       0.721852
H        1.984673       2.871721      -0.103782
H       -0.030165      -1.006140      -0.247255
[GEOCONV]
energy
0.0
2.7324037322978256
34.742074141060584
116.88909637532197
27.552453569573117
11.23488281822938
max-force
0.0
0.006105627258786943
0.008292878360407492
0.007911129410090485
0.009261537182781249
0.0004888721616260819
max-step
1000.0
1000.0
1000.0
1000.0
1000.0
1000.0
