[Molden Format]
[Geometries] (XYZ)
9

C       -0.854302      -0.327494      -0.086935
C        0.410534       0.523178      -0.161295
H       -1.751849       0.264657      -0.301635
H       -0.973028      -0.763652       0.913937
H       -0.799512      -1.152911      -0.804962
O        1.587149      -0.243515       0.078068
H        0.348113       1.360719       0.552921
H        0.526173       0.951296      -1.161771
H        1.506721      -0.612278       0.971670
9

C       -0.582935      -0.322423       0.037933
C        0.493733       0.553336      -0.271751
H       -1.611707       0.118914      -0.020937
H       -0.550137      -0.607264       1.094716
H       -0.592853      -1.194278      -0.606454
O        1.340489      -0.438892      -0.078275
H        0.673287       1.451564       0.338897
H        0.477457       0.923887      -1.313416
H        0.998942      -0.435179       0.790292
9

C       -0.360811      -0.414601       0.079743
C        0.539659       0.595236      -0.347806
H       -1.491784       0.065007       0.135869
H       -0.373380      -0.576529       1.177703
H       -0.626443      -1.370107      -0.404758
O        1.202163      -0.550438      -0.151983
H        0.941478       1.504146       0.138248
H        0.430843       0.902752      -1.404633
H        0.885929      -0.100125       0.621781
9

C       -0.559835      -0.861483       0.229219
C        0.917883       0.852626       0.156794
H       -1.237937      -0.022237       0.389711
H       -0.682030      -1.328645       1.253502
H       -1.075252      -1.625249      -0.407990
O        0.727463      -0.845513      -0.156456
H        1.700161       1.640467       0.448747
H        0.626894       1.240032      -0.805063
H        1.110697       0.285823       1.026394
9

C       -0.740475      -0.507918       0.883126
C        1.153086       0.398314      -0.226661
H       -1.035403       0.550840       0.873268
H       -0.557496      -0.802357       1.928280
H       -1.577393      -1.100221       0.494027
O        0.402838      -0.755877       0.084508
H        2.144083       0.063837      -0.547806
H        0.687892       0.981378      -1.036822
H        1.287441       1.062935       0.641965
[GEOCONV]
energy
0.0
58.11651757104846
195.6375967856584
132.26418931083754
8.511034891474992
max-force
0.0
0.005760219126014354
0.00917318215184953
0.011106431622177003
0.00045157524392103947
max-step
1000.0
1000.0
1000.0
1000.0
1000.0
