[Molden Format]
[Geometries] (XYZ)
9

C        0.045039      -0.527107       0.521477
C       -0.026328       0.322606      -0.499540
H        0.989764      -0.955360       0.848700
H       -0.968709       0.753268      -0.826400
H        0.857657       0.620131      -1.059824
O       -0.329885       3.161067       1.103001
H       -0.868505       3.747376       0.550951
H        0.538144       3.171239       0.673617
H       -0.836139      -0.823362       1.084892
9

C        0.008592      -0.470379       0.677433
C       -0.023650       0.498181      -0.235607
H        0.955172      -0.883322       1.051807
H       -0.965592       0.886853      -0.598002
H        0.882840       0.921718      -0.690245
O       -0.171940       3.080526       0.635814
H       -0.611952       3.713140       0.056212
H        0.689390       2.949841       0.240159
H       -0.884801      -0.893138       1.121400
9

C        0.005542      -0.346753       0.559820
C       -0.016913       0.748282      -0.199943
H        0.915097      -0.745409       1.012125
H       -0.902085       1.133160      -0.700401
H        0.975568       1.372766      -0.415946
O       -0.078121       2.775151       0.668586
H       -0.335809       3.609715       0.209052
H        0.774725       2.435754       0.182889
H       -0.929701      -0.884880       0.829940
9

C        0.035844      -0.262306       0.572552
C       -0.054348       0.821357      -0.185833
H        0.957354      -0.634875       1.012811
H       -0.926001       1.217194      -0.695256
H        1.376480       1.613100      -0.503451
O       -0.144549       2.618724       0.710665
H       -0.457685       3.444117       0.286261
H        1.158320       2.375371       0.024304
H       -0.882231      -0.818712       0.833234
9

C        0.098682      -0.112941       0.498547
C       -0.183193       1.097974      -0.008519
H        1.097484      -0.375815       0.845287
H       -1.185652       1.200085      -0.441064
H        1.776279       2.005975      -0.434153
O       -0.034320       2.351887       0.709516
H       -0.550409       2.994725       0.196085
H        1.458821       2.486356       0.034633
H       -0.686710      -0.847626       0.591426
9

C        0.222129      -0.119402       0.322793
C       -0.575539       0.946319       0.280222
H        1.123596      -0.130295       0.926688
H       -1.484379       0.960155      -0.321591
H        2.405560       2.712115      -0.696379
O       -0.321251       2.083531       1.002335
H       -0.933607       2.777390       0.721852
H        1.984673       2.871721      -0.103782
H       -0.030165      -1.006140      -0.247255
[GEOCONV]
energy
0.0
2.405288560054032
33.322329710266786
127.77525748836342
64.70831675312365
11.23488281822938
max-force
0.0
0.006105627258786943
0.008292878360407492
0.007911129410090485
0.009261537182781249
0.0004888721616260819
max-step
1000.0
1000.0
1000.0
1000.0
1000.0
1000.0
