[Molden Format]
[Geometries] (XYZ)
9

C        0.045039      -0.527107       0.521477
C       -0.026328       0.322606      -0.499540
H        0.989764      -0.955360       0.848700
H       -0.968709       0.753268      -0.826400
H        0.857657       0.620131      -1.059824
O       -0.329885       3.161067       1.103001
H       -0.868505       3.747376       0.550951
H        0.538144       3.171239       0.673617
H       -0.836139      -0.823362       1.084892
9

C       -0.054521      -0.506949       0.684605
C       -0.201634       0.536857      -0.126518
H        0.885505      -0.709683       1.198994
H       -1.134502       0.732963      -0.646530
H        0.638595       1.117473      -0.482351
O       -0.224811       2.870856       1.100835
H       -0.909122       3.469238       0.773205
H        0.430624       2.810132       0.397445
H       -0.875766      -1.200294       0.871810
9

C       -0.202884      -0.189719       0.905686
C       -0.323881       0.906001       0.122772
H        0.585323      -0.284810       1.643739
H       -1.159959       1.016660      -0.560268
H        0.729287       1.470897      -0.738642
O       -0.050719       2.284411       0.890319
H       -0.877255       2.809432       0.971588
H        0.605920       2.440480      -0.079112
H       -0.780513      -1.075558       0.662095
9

C       -0.276497      -0.223387       1.026170
C       -0.525539       0.944442       0.421087
H        0.469404      -0.302526       1.804934
H       -1.323554       1.026786      -0.312557
H        1.097324       1.724880      -0.856393
O       -0.207301       2.139334       1.030037
H       -0.976576       2.719684       0.952567
H        0.996857       2.311967      -0.425246
H       -0.750924      -1.128936       0.650510
9

C       -0.026034      -0.193731       0.715286
C       -0.568265       0.966328       0.357726
H        0.793621      -0.244877       1.420535
H       -1.398843       1.019604      -0.352827
H        1.586532       1.944729      -1.198553
O       -0.176520       2.156894       0.910589
H       -0.780003       2.850064       0.616303
H        1.464573       2.453473      -0.679639
H       -0.382451      -1.123778       0.276959
9

C        0.222129      -0.119402       0.322793
C       -0.575539       0.946319       0.280222
H        1.123596      -0.130295       0.926688
H       -1.484379       0.960155      -0.321591
H        2.405560       2.712115      -0.696379
O       -0.321251       2.083531       1.002335
H       -0.933607       2.777390       0.721852
H        1.984673       2.871721      -0.103782
H       -0.030165      -1.006140      -0.247255
[GEOCONV]
energy
0.0
5.62883407859772
96.5173560170224
29.000284323541564
13.122392621851759
11.23488281822938
max-force
0.0
0.004164769834103442
0.00040753191658394214
0.007572140738010646
0.0026866194793781946
0.0004888721616260819
max-step
1000.0
1000.0
1000.0
1000.0
1000.0
1000.0
