[Molden Format]
[Geometries] (XYZ)
9

C       -0.854302      -0.327494      -0.086935
C        0.410534       0.523178      -0.161295
H       -1.751849       0.264657      -0.301635
H       -0.973028      -0.763652       0.913937
H       -0.799512      -1.152911      -0.804962
O        1.587149      -0.243515       0.078068
H        0.348113       1.360719       0.552921
H        0.526173       0.951296      -1.161771
H        1.506721      -0.612278       0.971670
9

C       -0.556844      -0.647635      -0.135307
C        0.541453       0.544596      -0.277552
H       -1.512586      -0.089783      -0.049494
H       -0.450383      -1.332577       0.690498
H       -0.549755      -1.106195      -1.123768
O        1.584816      -0.556110       0.199092
H        1.128047       1.211785       0.351769
H        0.913574       0.562904      -1.298207
H        1.852189      -0.406156       1.121107
9

C       -0.571313      -0.911542      -0.033234
C        0.953623       1.176293      -0.396503
H       -1.215413      -0.068972       0.224091
H       -0.770383      -1.797623       0.577242
H       -0.686235      -1.155232      -1.089503
O        0.809704      -0.517208       0.138470
H        1.882855       1.356077       0.193640
H        1.382818       0.876744      -1.376672
H        1.019123      -0.524250       1.084740
9

C       -0.657619      -0.989944      -0.301586
C        1.116746       0.683222      -0.205026
H       -1.248181      -0.074549      -0.275905
H       -1.027667      -1.729996       0.416316
H       -0.769594      -1.417794      -1.302543
O        0.701084      -0.729279      -0.000506
H        2.130301       0.672600       0.256761
H        1.377942       0.719638      -1.272507
H        0.838022       0.639081       0.949536
9

C       -0.740475      -0.507918       0.883126
C        1.153086       0.398314      -0.226661
H       -1.035403       0.550840       0.873268
H       -0.557496      -0.802357       1.928280
H       -1.577393      -1.100221       0.494027
O        0.402838      -0.755877       0.084508
H        2.144083       0.063837      -0.547806
H        0.687892       0.981378      -1.036822
H        1.287441       1.062935       0.641965
[GEOCONV]
energy
0.0
61.32404470985057
98.832867981444
85.10293351461587
8.511034891474992
max-force
0.0
0.0021949133366245027
0.00038093692496403593
0.0048502691150986346
0.00045157524392103947
max-step
1000.0
1000.0
1000.0
1000.0
1000.0
