[Molden Format]
[Geometries] (XYZ)
9

C        0.513945      -0.068073       0.881288
C       -0.001710       0.080870      -0.539627
H        1.601225       0.062434       0.914913
H        0.252417       1.078798      -0.932329
H        0.470687      -0.668795      -1.195114
O       -1.417977      -0.100143      -0.514130
H       -1.735333      -0.003269      -1.424697
H        0.050303       0.677837       1.535387
H        0.266443      -1.059659       1.274308
9

C        0.465611      -0.086598       0.993076
C       -0.105292       0.109171      -0.836677
H        1.557574       0.035840       1.106597
H        0.099649       1.104349      -1.280377
H        0.318606      -0.640066      -1.535281
O       -1.261816      -0.116642      -0.285658
H       -1.765921      -0.017993      -1.388690
H       -0.072805       0.669398       1.559872
H        0.149147      -1.079809       1.303640
9

C        0.472833      -0.091839       1.149503
C       -0.291607       0.111139      -1.084355
H        1.559458       0.039145       1.199905
H       -0.141167       1.105966      -1.524342
H        0.098043      -0.650869      -1.772764
O       -1.137707      -0.121388      -0.220687
H       -1.979535      -0.044271      -1.653177
H       -0.056120       0.668831       1.721583
H        0.162318      -1.078514       1.489430
9

C        0.078966      -0.128640       1.002293
C       -0.361094       0.097867      -1.150313
H        1.106083       0.000876       0.666117
H       -0.100142       1.117549      -1.491962
H        0.065172      -0.710470      -1.735162
O       -1.014788      -0.105108      -0.031835
H       -1.454958       0.074872      -1.618345
H       -0.291028       0.591254       1.748644
H       -0.123550      -1.052824       1.558836
9

C        0.037131      -0.034798       0.990697
C       -0.662007       0.025380      -1.278639
H        1.008997      -0.093959       0.482118
H        0.043124       0.824455      -1.559725
H       -0.208356      -0.946891      -1.530929
O       -1.038353       0.102629       0.077832
H       -1.576652       0.142794      -1.867707
H        0.053403       0.828244       1.668747
H       -0.092141      -0.945988       1.591481
[GEOCONV]
energy
0.0
79.66668975097127
171.254007412208
55.81739796507463
8.184022577406722
max-force
0.0
0.00975208591885593
0.009282413710889162
0.009763594898867613
0.00018429521202964578
max-step
1000.0
1000.0
1000.0
1000.0
1000.0
