[Molden Format]
[Geometries] (XYZ)
9

C       -0.855189      -0.328578      -0.088115
C        0.409590       0.522587      -0.158990
H       -1.750530       0.267102      -0.300318
H       -0.975524      -0.762747       0.913520
H       -0.801645      -1.154032      -0.805865
O        1.588100      -0.242268       0.077947
H        0.342526       1.363125       0.551205
H        0.531009       0.948616      -1.159883
H        1.511662      -0.613804       0.970500
9

C       -0.688383      -0.378552      -0.004143
C        0.440149       0.554756      -0.186424
H       -1.202862       0.431071      -0.199499
H       -0.811121      -0.781005       1.002021
H       -0.718051      -1.198621      -0.724742
O        1.402305      -0.328708       0.030276
H        0.418321       1.449760       0.495875
H        0.547959       0.939323      -1.215152
H        1.330234      -0.682236       0.921368
9

C       -1.148999      -0.417080      -0.087568
C        0.777593       0.654485       0.035406
H       -0.389262       0.448651      -0.013951
H       -1.298910      -0.883841       0.884134
H       -1.115397      -0.846087      -1.082111
O        1.507906      -0.448950      -0.178228
H        0.860567       1.203961       0.977811
H        0.854189       1.319338      -0.829994
H        1.371994      -1.095858       0.518444
9

C       -0.790718       0.039521       0.438479
C        0.662270       0.377462       0.713727
H       -0.328810      -0.901019       0.126968
H       -1.500714      -0.201722       1.219753
H       -1.219942       0.454242      -0.477637
O        1.382526      -0.725291       0.046366
H        0.967857       0.461597       1.760002
H        1.063734       1.210821       0.135993
H        1.307950      -1.513799       0.615796
9

C       -0.774237       0.012959       0.378854
C        0.635883       0.389427       0.737270
H       -0.044895      -0.948771       0.139535
H       -1.536605      -0.191673       1.137956
H       -1.092192       0.455873      -0.562540
O        1.241482      -0.846198       0.167325
H        0.948687       0.529049       1.789176
H        1.052407       1.207854       0.127689
H        1.240707      -1.548330       0.834432
9

C       -0.612322       0.261466       0.675780
C        0.913125       0.201509       0.428849
H       -1.140967      -0.234510      -0.146335
H       -0.900836      -0.225079       1.613349
H       -0.979585       1.292616       0.704640
O        1.262389      -0.273912      -0.868941
H        1.399927      -0.412092       1.203765
H        1.355142       1.199038       0.490369
H        0.988918      -1.203337      -0.919272
[GEOCONV]
energy
0.0
52.248083280719584
128.48597117168538
30.390915224488708
67.4155530508142
3.5104724502016325
max-force
0.0
0.0072630433594439575
0.00930950915444897
0.0080465567405056
0.0064816019556165096
0.0004982985137171603
max-step
1000.0
1000.0
1000.0
1000.0
1000.0
1000.0
