[Molden Format]
[Geometries] (XYZ)
9

C       -0.855189      -0.328578      -0.088115
C        0.409590       0.522587      -0.158990
H       -1.750530       0.267102      -0.300318
H       -0.975524      -0.762747       0.913520
H       -0.801645      -1.154032      -0.805865
O        1.588100      -0.242268       0.077947
H        0.342526       1.363125       0.551205
H        0.531009       0.948616      -1.159883
H        1.511662      -0.613804       0.970500
9

C       -0.843635      -0.492536       0.116995
C        0.507094       0.736763      -0.032992
H       -0.909709       0.499603      -0.052378
H       -1.053251      -0.813961       1.136480
H       -0.715944      -1.211475      -0.689793
O        1.446975      -0.114081       0.152106
H        0.413200       1.589555       0.670957
H        0.567827       1.125433      -1.058801
H        1.372725      -0.487527       1.034816
9

C       -1.007049      -0.510898       0.196428
C        0.563035       0.858347       0.086344
H       -0.543243       0.307721       0.508177
H       -1.579556      -0.764582       1.084418
H       -0.637184      -1.101476      -0.637624
O        1.476085       0.066819       0.160961
H        0.576862       1.743605       0.728588
H        0.576837       1.095624      -0.980382
H        1.558393      -0.176974       1.091360
9

C       -0.919848      -0.337630       0.181043
C        0.518448       0.944481       0.041892
H       -0.321279      -0.097716       0.818182
H       -1.678029      -0.535617       0.931639
H       -0.719834      -0.917411      -0.719411
O        1.525144       0.219364       0.184510
H        0.586547       1.847693       0.654622
H        0.614500       1.104875      -1.033952
H        1.699177       0.020843       1.117288
9

C       -0.858521      -0.218798      -0.048035
C        0.294542       0.913045      -0.235572
H       -0.044796      -0.615014       0.543788
H       -1.685720      -0.165722       0.662089
H       -1.012409      -0.738879      -0.994113
O        1.495545       0.192053       0.086653
H        0.246341       1.850304       0.339770
H        0.451814       1.116281      -1.301321
H        1.629488       0.118040       1.044251
9

C       -0.612322       0.261466       0.675780
C        0.913125       0.201509       0.428849
H       -1.140967      -0.234510      -0.146335
H       -0.900836      -0.225079       1.613349
H       -0.979585       1.292616       0.704640
O        1.262389      -0.273912      -0.868941
H        1.399927      -0.412092       1.203765
H        1.355142       1.199038       0.490369
H        0.988918      -1.203337      -0.919272
[GEOCONV]
energy
0.0
102.0375452501903
174.41949803837633
135.1030205317802
32.872387539217016
3.5104724502016325
max-force
0.0
0.0072630433594439575
0.00930950915444897
0.0080465567405056
0.0064816019556165096
0.0004982985137171603
max-step
1000.0
1000.0
1000.0
1000.0
1000.0
1000.0
