[Molden Format]
[Geometries] (XYZ)
9

C        0.513945      -0.068073       0.881288
C       -0.001710       0.080870      -0.539627
H        1.601225       0.062434       0.914913
H        0.252417       1.078798      -0.932329
H        0.470687      -0.668795      -1.195114
O       -1.417977      -0.100143      -0.514130
H       -1.735333      -0.003269      -1.424697
H        0.050303       0.677837       1.535387
H        0.266443      -1.059659       1.274308
9

C        0.417435      -0.092087       1.005304
C       -0.156865       0.119680      -0.882290
H        1.508196       0.027593       1.115901
H        0.051490       1.118105      -1.311547
H        0.270257      -0.630079      -1.574986
O       -1.288630      -0.107645      -0.309491
H       -1.820286       0.000329      -1.473196
H       -0.119685       0.662437       1.576259
H        0.097313      -1.084980       1.314702
9

C        0.282914      -0.109694       1.109767
C       -0.341928       0.143094      -1.109941
H        1.365472       0.028883       1.048720
H       -0.147351       1.155384      -1.495963
H        0.077418      -0.622643      -1.769956
O       -1.143527      -0.096819      -0.180719
H       -1.834694       0.044020      -1.689703
H       -0.203846       0.631999       1.748113
H        0.008213      -1.092890       1.497040
9

C        0.084531      -0.099194       0.988325
C       -0.455886       0.148586      -1.176386
H        1.098709       0.082919       0.629362
H       -0.194352       1.178340      -1.481524
H        0.019826      -0.639461      -1.757593
O       -1.052976      -0.092092      -0.026527
H       -1.561572       0.100741      -1.659177
H       -0.266872       0.605129       1.756192
H       -0.038911      -1.056740       1.509616
9

C        0.037131      -0.034798       0.990697
C       -0.662007       0.025380      -1.278639
H        1.008997      -0.093959       0.482118
H        0.043124       0.824455      -1.559725
H       -0.208356      -0.946891      -1.530929
O       -1.038353       0.102629       0.077832
H       -1.576652       0.142794      -1.867707
H        0.053403       0.828244       1.668747
H       -0.092141      -0.945988       1.591481
[GEOCONV]
energy
0.0
95.85914832609706
147.77386071292858
46.59743208385771
8.184022577406722
max-force
0.0
0.00975208591885593
0.009282413710889162
0.009763594898867613
0.00018429521202964578
max-step
1000.0
1000.0
1000.0
1000.0
1000.0
