[Molden Format]
[Geometries] (XYZ)
9

C       -0.855189      -0.328578      -0.088115
C        0.409590       0.522587      -0.158990
H       -1.750530       0.267102      -0.300318
H       -0.975524      -0.762747       0.913520
H       -0.801645      -1.154032      -0.805865
O        1.588100      -0.242268       0.077947
H        0.342526       1.363125       0.551205
H        0.531009       0.948616      -1.159883
H        1.511662      -0.613804       0.970500
9

C       -0.903289      -0.562900      -0.207549
C        0.601771       0.345414      -0.188167
H       -1.174547       0.387225       0.172410
H       -0.899682      -1.296798       0.603543
H       -0.688748      -0.973971      -1.181498
O        1.722592      -0.365651       0.232737
H        0.483545       1.339547       0.263215
H        0.726429       0.471969      -1.269385
H        1.783863      -0.320722       1.198530
9

C       -1.370981      -0.732849      -0.048026
C        0.659748       0.541139      -0.107769
H       -0.377516       0.075840       0.325870
H       -1.197813      -1.399923       0.834132
H       -0.920591      -1.328383      -0.870034
O        1.825699      -0.136218       0.173118
H        0.563039       1.518050       0.387654
H        0.525965       0.628086      -1.183058
H        2.005097      -0.073085       1.124326
9

C       -0.862287      -0.325103      -0.097338
C        0.548559       0.673975      -0.215167
H       -0.559565      -0.137360       0.935747
H       -1.793637      -0.884517       0.157500
H       -0.257057      -1.121346      -0.534129
O        1.559667      -0.179273       0.183970
H        0.452652       1.602178       0.348861
H        0.726636       0.860212      -1.273178
H        1.517386      -0.342104       1.120719
9

C       -0.673508      -0.361873       0.136900
C        0.478048       0.593381      -0.170784
H       -0.613870      -0.813086       1.132531
H       -1.633610       0.121482      -0.033671
H       -0.635958      -1.208451      -0.566263
O        1.765368       0.046554       0.124401
H        0.329157       1.560773       0.348582
H        0.497803       0.813173      -1.243469
H        1.818370      -0.020360       1.088181
9

C       -0.612322       0.261466       0.675780
C        0.913125       0.201509       0.428849
H       -1.140967      -0.234510      -0.146335
H       -0.900836      -0.225079       1.613349
H       -0.979585       1.292616       0.704640
O        1.262389      -0.273912      -0.868941
H        1.399927      -0.412092       1.203765
H        1.355142       1.199038       0.490369
H        0.988918      -1.203337      -0.919272
[GEOCONV]
energy
0.0
46.487886169939884
110.57138082450547
76.01376426796196
1.0412297730654245
3.5104724502016325
max-force
0.0
0.002103783505716464
0.0004918687521159937
0.010158954687630565
0.002857375817577504
0.0004982985137171603
max-step
1000.0
1000.0
1000.0
1000.0
1000.0
1000.0
