[Molden Format]
[Geometries] (XYZ)
9

C        0.513945      -0.068073       0.881288
C       -0.001710       0.080870      -0.539627
H        1.601225       0.062434       0.914913
H        0.252417       1.078798      -0.932329
H        0.470687      -0.668795      -1.195114
O       -1.417977      -0.100143      -0.514130
H       -1.735333      -0.003269      -1.424697
H        0.050303       0.677837       1.535387
H        0.266443      -1.059659       1.274308
9

C        0.483456       0.030460       0.589651
C       -0.211424       0.203549      -0.814900
H        1.551655       0.166164       0.415279
H        0.127163       1.240770      -0.978128
H        0.297659      -0.649701      -1.268846
O       -1.633715       0.014896      -0.415467
H       -1.452128       0.261985      -1.494204
H        0.155183       0.823414       1.256998
H        0.293492      -0.970339       0.947059
9

C        0.426445       0.039566       0.784584
C       -0.150814       0.136249      -0.834780
H        1.490801       0.259151       0.615771
H        0.205185       1.167856      -0.971308
H        0.534994      -0.630935      -1.221481
O       -1.482568      -0.250511       0.088768
H       -0.954097       0.104005      -1.575342
H       -0.055606       0.798587       1.388047
H        0.274585      -0.962210       1.166140
9

C        0.454152      -0.033677       0.870238
C       -0.184985       0.170208      -1.124680
H        1.490602       0.085179       0.606692
H        0.222390       1.182980      -1.294909
H        0.399617      -0.672156      -1.511153
O       -0.908662      -0.117302       0.075536
H       -1.043899       0.141721      -1.707720
H        0.181862       0.734094       1.633035
H        0.288025      -1.010594       1.333700
9

C        0.037131      -0.034798       0.990697
C       -0.662007       0.025380      -1.278639
H        1.008997      -0.093959       0.482118
H        0.043124       0.824455      -1.559725
H       -0.208356      -0.946891      -1.530929
O       -1.038353       0.102629       0.077832
H       -1.576652       0.142794      -1.867707
H        0.053403       0.828244       1.668747
H       -0.092141      -0.945988       1.591481
[GEOCONV]
energy
0.0
60.85220609829412
143.92005574944778
57.554304570076056
8.184022577406722
max-force
0.0
0.00617541908667386
0.00020044757512678772
0.011690432025941246
0.00018429521202964578
max-step
1000.0
1000.0
1000.0
1000.0
1000.0
