                  Welcome to Q-Chem
     A Quantum Leap Into The Future Of Chemistry


 Q-Chem 5.2 (devel), Q-Chem, Inc., Pleasanton, CA (2019)

 Yihan Shao,  Zhengting Gan,  E. Epifanovsky,  A. T. B. Gilbert,  M. Wormit,  
 J. Kussmann,  A. W. Lange,  A. Behn,  Jia Deng,  Xintian Feng,  D. Ghosh,  
 M. Goldey,  P. R. Horn,  L. D. Jacobson,  I. Kaliman,  T. Kus,  A. Landau,  
 Jie Liu,  E. I. Proynov,  R. M. Richard,  R. P. Steele,  E. J. Sundstrom,  
 H. L. Woodcock III,  P. M. Zimmerman,  D. Zuev,  B. Albrecht,  E. Alguire,  
 S. A. Baeppler,  D. Barton,  Z. Benda,  Y. A. Bernard,  E. J. Berquist,  
 K. B. Bravaya,  H. Burton,  D. Casanova,  Chun-Min Chang,  Yunqing Chen,  
 A. Chien,  K. D. Closser,  M. P. Coons,  S. Coriani,  S. Dasgupta,  
 A. L. Dempwolff,  M. Diedenhofen,  Hainam Do,  R. G. Edgar,  Po-Tung Fang,  
 S. Faraji,  S. Fatehi,  Qingguo Feng,  K. D. Fenk,  J. Fosso-Tande,  
 J. Gayvert,  Qinghui Ge,  A. Ghysels,  G. Gidofalvi,  J. Gomes,  
 J. Gonthier,  A. Gunina,  D. Hait,  M. W. D. Hanson-Heine,  
 P. H. P. Harbach,  A. W. Hauser,  M. F. Herbst,  J. E. Herr,  
 E. G. Hohenstein,  Z. C. Holden,  Kerwin Hui,  B. C. Huynh,  T.-C. Jagau,  
 Hyunjun Ji,  B. Kaduk,  K. Khistyaev,  Jaehoon Kim,  P. Klunzinger,  K. Koh,  
 D. Kosenkov,  L. Koulias,  T. Kowalczyk,  C. M. Krauter,  A. Kunitsa,  
 Ka Un Lao,  A. Laurent,  K. V. Lawler,  Joonho Lee,  D. Lefrancois,  
 S. Lehtola,  D. S. Levine,  Yi-Pei Li,  You-Sheng Lin,  Fenglai Liu,  
 E. Livshits,  A. Luenser,  P. Manohar,  E. Mansoor,  S. F. Manzer,  
 Shan-Ping Mao,  Yuezhi Mao,  N. Mardirossian,  A. V. Marenich,  
 T. Markovich,  L. A. Martinez-Martinez,  S. A. Maurer,  N. J. Mayhall,  
 S. C. McKenzie,  J.-M. Mewes,  P. Morgante,  A. F. Morrison,  
 J. W. Mullinax,  K. Nanda,  T. S. Nguyen-Beck,  R. Olivares-Amaya,  
 J. A. Parkhill,  Zheng Pei,  T. M. Perrine,  F. Plasser,  P. Pokhilko,  
 S. Prager,  A. Prociuk,  E. Ramos,  D. R. Rehn,  F. Rob,  M. Scheurer,  
 M. Schneider,  N. Sergueev,  S. M. Sharada,  S. Sharma,  D. W. Small,  
 T. Stauch,  T. Stein,  Yu-Chuan Su,  A. J. W. Thom,  A. Tkatchenko,  
 T. Tsuchimochi,  N. M. Tubman,  L. Vogt,  M. L. Vidal,  O. Vydrov,  
 M. A. Watson,  J. Wenzel,  M. de Wergifosse,  T. A. Wesolowski,  A. White,  
 J. Witte,  A. Yamada,  Jun Yang,  K. Yao,  S. Yeganeh,  S. R. Yost,  
 Zhi-Qiang You,  A. Zech,  Igor Ying Zhang,  Xing Zhang,  Yan Zhao,  
 Ying Zhu,  B. R. Brooks,  G. K. L. Chan,  C. J. Cramer,  M. S. Gordon,  
 W. J. Hehre,  A. Klamt,  M. W. Schmidt,  C. D. Sherrill,  D. G. Truhlar,  
 A. Aspuru-Guzik,  R. Baer,  A. T. Bell,  N. A. Besley,  Jeng-Da Chai,  
 A. E. DePrince, III,  R. A. DiStasio Jr.,  A. Dreuw,  B. D. Dunietz,  
 T. R. Furlani,  Chao-Ping Hsu,  Yousung Jung,  Jing Kong,  D. S. Lambrecht,  
 WanZhen Liang,  C. Ochsenfeld,  V. A. Rassolov,  L. V. Slipchenko,  
 J. E. Subotnik,  T. Van Voorhis,  J. M. Herbert,  A. I. Krylov,  
 P. M. W. Gill,  M. Head-Gordon

 Contributors to earlier versions of Q-Chem not listed above: 
 R. D. Adamson,  B. Austin,  J. Baker,  G. J. O. Beran,  K. Brandhorst,  
 S. T. Brown,  E. F. C. Byrd,  A. K. Chakraborty,  C.-L. Cheng,  
 Siu Hung Chien,  D. M. Chipman,  D. L. Crittenden,  H. Dachsel,  
 R. J. Doerksen,  A. D. Dutoi,  L. Fusti-Molnar,  W. A. Goddard III,  
 A. Golubeva-Zadorozhnaya,  S. R. Gwaltney,  G. Hawkins,  A. Heyden,  
 S. Hirata,  G. Kedziora,  F. J. Keil,  C. Kelley,  Jihan Kim,  R. A. King,  
 R. Z. Khaliullin,  P. P. Korambath,  W. Kurlancheek,  A. M. Lee,  M. S. Lee,  
 S. V. Levchenko,  Ching Yeh Lin,  D. Liotard,  R. C. Lochan,  I. Lotan,  
 P. E. Maslen,  N. Nair,  D. P. O'Neill,  D. Neuhauser,  E. Neuscamman,  
 C. M. Oana,  R. Olson,  B. Peters,  R. Peverati,  P. A. Pieniazek,  
 Y. M. Rhee,  J. Ritchie,  M. A. Rohrdanz,  E. Rosta,  N. J. Russ,  
 H. F. Schaefer III,  N. E. Schultz,  N. Shenvi,  A. C. Simmonett,  A. Sodt,  
 D. Stuck,  K. S. Thanthiriwatte,  V. Vanovschi,  Tao Wang,  A. Warshel,  
 C. F. Williams,  Q. Wu,  X. Xu,  W. Zhang

 Please cite Q-Chem as follows:
 Y. Shao et al., Mol. Phys. 113, 184-215 (2015)
 DOI: 10.1080/00268976.2014.952696

 Q-Chem 5.2.1 for Intel X86 EM64T Linux

 Parts of Q-Chem use Armadillo 8.300.2 (Tropical Shenanigans).
 http://arma.sourceforge.net/

 Q-Chem begins on Sun Mar 22 17:02:01 2020  

Host: node018
0

     Scratch files written to /tmp/ypli/106203.h81/qchem10162//
NAlpha2: 26
NElect   26
Mult     1

Checking the input file for inconsistencies... 	...done.

--------------------------------------------------------------
User input:
--------------------------------------------------------------
$rem
jobtype = freq
exchange = b3lyp
basis = 6-31g*
$end

$molecule
0 1
C      0.29353715   -0.18458620    1.12454371
C     -0.36435290    0.14752541   -1.11079083
H      1.29620592   -0.26700016    0.69462191
H     -0.04868078    1.19018850   -1.01233343
H      0.43522797   -0.44780570   -1.56191060
O     -0.71715550   -0.40498437    0.14979532
H     -1.23989110    0.10334381   -1.76528391
H      0.15994461    0.80397983    1.57374907
H      0.18516463   -0.94066114    1.90760877
$end
--------------------------------------------------------------
 ----------------------------------------------------------------
             Standard Nuclear Orientation (Angstroms)
    I     Atom           X                Y                Z
 ----------------------------------------------------------------
    1      C       1.1767034016     0.2001984291     0.0000616254
    2      C      -1.1769823149     0.2006756462     0.0011864981
    3      H       1.0601759566     1.0961897670    -0.6168584295
    4      H      -1.1418329662     0.9581541647     0.7895264524
    5      H      -1.2982907923     0.6782091725    -0.9758005693
    6      O      -0.0005977642    -0.5961502986    -0.0002190872
    7      H      -2.0371058042    -0.4523402672     0.1762240515
    8      H       1.4270387966     0.4836308115     1.0266547738
    9      H       1.9964704034    -0.3998857113    -0.4054823222
 ----------------------------------------------------------------
 Molecular Point Group                 C1    NOp =  1
 Largest Abelian Subgroup              C1    NOp =  1
 Nuclear Repulsion Energy =          83.58754678 hartrees
 There are       13 alpha and       13 beta electrons
 Requested basis set is 6-31G(d)
 There are 24 shells and 57 basis functions

 Total QAlloc Memory Limit   2000 MB
 Mega-Array Size       188 MB
 MEM_STATIC part       192 MB

                       Distance Matrix (Angstroms)
             C (  1)   C (  2)   H (  3)   H (  4)   H (  5)   O (  6)
   C (  2)  2.353686
   H (  3)  1.094061  2.487730
   H (  4)  2.563857  1.093841  2.616451
   H (  5)  2.703035  1.094193  2.421965  1.794221
   O (  6)  1.421341  1.420850  2.090335  2.083741  2.063918
   H (  7)  3.284115  1.094020  3.552475  1.779648  1.775148  2.049190
   H (  8)  1.094027  2.812930  1.791913  2.623072  3.387493  2.063624
   H (  9)  1.093885  3.255281  1.777518  3.622329  3.513261  2.047203
             H (  7)   H (  8)
   H (  8)  3.687760
   H (  9)  4.075644  1.776477
 
 A cutoff of  1.0D-11 yielded    299 shell pairs
 There are      1733 function pairs
 Smallest overlap matrix eigenvalue = 8.05E-03
 Guess from superposition of atomic densities
 Warning:  Energy on first SCF cycle will be non-variational
 SAD guess density has 26.000000 electrons

 -----------------------------------------------------------------------
  General SCF calculation program by
  Eric Jon Sundstrom, Paul Horn, Yuezhi Mao, Dmitri Zuev, Alec White,
  David Stuck, Shaama M.S., Shane Yost, Joonho Lee, David Small,
  Daniel Levine, Susi Lehtola, Hugh Burton, Evgeny Epifanovsky,
  Bang C. Huynh
 -----------------------------------------------------------------------
 Exchange:     0.2000 Hartree-Fock + 0.0800 Slater + 0.7200 B88
 Correlation:  0.1900 VWN1RPA + 0.8100 LYP
 Using SG-1 standard quadrature grid
 using 2 threads for integral computing
 -------------------------------------------------------
 OpenMP Integral computing Module                
 Release: version 2.0, May 2017, Q-Chem Inc. Pleasanton 
 -------------------------------------------------------
 A restricted SCF calculation will be
 performed using DIIS
 SCF converges when DIIS error is below 1.0e-08
 ---------------------------------------
  Cycle       Energy         DIIS error
 ---------------------------------------
    1    -155.3132594101      9.90e-02  
    2    -154.9694944891      1.15e-02  
    3    -154.9546021577      1.38e-02  
    4    -155.0211172282      2.17e-03  
    5    -155.0224131184      6.78e-04  
    6    -155.0225607156      8.67e-05  
    7    -155.0225633433      7.91e-06  
    8    -155.0225633720      8.40e-07  
    9    -155.0225633723      1.79e-07  
   10    -155.0225633723      9.40e-08  
   11    -155.0225633723      6.56e-09  Convergence criterion met
 ---------------------------------------
 SCF time:   CPU 3.98s  wall 3.00s 
 SCF   energy in the final basis set =     -155.0225633723
 Total energy in the final basis set =     -155.0225633723
 
 --------------------------------------------------------------
 
                    Orbital Energies (a.u.)
 --------------------------------------------------------------
 
 Alpha MOs
 -- Occupied --
-19.1399 -10.2227 -10.2224  -1.0191  -0.7159  -0.6372  -0.4679  -0.4657
 -0.4644  -0.3996  -0.3746  -0.3122  -0.2472
 -- Virtual --
  0.0935   0.1369   0.1492   0.1558   0.1636   0.1837   0.1915   0.2366
  0.5261   0.5414   0.5471   0.5645   0.5944   0.6995   0.8392   0.8502
  0.8564   0.8597   0.8852   0.9406   0.9635   1.0615   1.0669   1.0988
  1.3949   1.4179   1.4814   1.5344   1.6226   1.8915   2.0512   2.0698
  2.0945   2.1583   2.1790   2.2214   2.3434   2.4613   2.5345   2.7010
  2.9017   3.8715   4.2003   4.2779
 --------------------------------------------------------------
 
          Ground-State Mulliken Net Atomic Charges

     Atom                 Charge (a.u.)
  ----------------------------------------
      1 C                    -0.194035
      2 C                    -0.194973
      3 H                     0.129621
      4 H                     0.130301
      5 H                     0.134201
      6 O                    -0.455937
      7 H                     0.157394
      8 H                     0.137045
      9 H                     0.156384
  ----------------------------------------
  Sum of atomic charges =     0.000000

 -----------------------------------------------------------------
                    Cartesian Multipole Moments
 -----------------------------------------------------------------
    Charge (ESU x 10^10)
                -0.0000
    Dipole Moment (Debye)
         X      -0.0039      Y       1.3774      Z      -0.0198
       Tot       1.3776
    Quadrupole Moments (Debye-Ang)
        XX     -16.9705     XY       0.0476     YY     -20.9680
        XZ      -0.1537     YZ       0.0003     ZZ     -19.8819
    Octopole Moments (Debye-Ang^2)
       XXX      -0.2103    XXY      -2.1687    XYY      -0.0456
       YYY      -1.5593    XXZ      -0.1855    XYZ       0.2595
       YYZ      -0.1250    XZZ       0.1585    YZZ      -0.1480
       ZZZ       0.1244
    Hexadecapole Moments (Debye-Ang^3)
      XXXX    -159.1696   XXXY       0.4679   XXYY     -34.5713
      XYYY       0.1999   YYYY     -48.2050   XXXZ      -1.6275
      XXYZ       0.2531   XYYZ      -0.5590   YYYZ      -0.1374
      XXZZ     -33.1052   XYZZ      -0.2196   YYZZ     -13.1811
      XZZZ       0.7515   YZZZ       0.0765   ZZZZ     -32.8250
 -----------------------------------------------------------------
 Calculating MO derivatives via CPSCF
    1     0    30    0.0446602  
    2     0    30    0.0059000  
    3     0    30    0.0003760  
    4    19    11    0.0000145  
    5    30     0    0.0000004  Converged
 Time for AOints: 0.4 s (CPU) 0.2 s (wall)
 ------------------------------------------------------------------------------
                     AOints        : Timing summary (seconds)
 ------------------------------------------------------------------------------
     job step          cpu (% of tot)      sys (% of tot)     wall (% of tot)
 ------------------------------------------------------------------------------
  AOints            0.4156E+00 ( 4.6)   0.4000E-05 (12.5)   0.2357E+00 ( 5.0)
 ------------------------------------------------------------------------------
   Grand Totals     0.9093E+01          0.3200E-04          0.4673E+01
 ------------------------------------------------------------------------------
 Polarizability Matrix (a.u.)
            1           2           3
    1 -31.2656397  -0.0021614  -0.1147158
    2  -0.0021614 -23.6272651  -0.0142046
    3  -0.1147158  -0.0142046 -24.2819188
 Calculating analytic Hessian of the SCF energy
 
 Direct stationary perturbation theory relativistic correction:
 
 rels  =       0.047332790636
 relv  =      -0.197894907967
 rel2e =       0.072105235652
 E_rel =      -0.078456881679
 
 Hessian of the SCF Energy
            1           2           3           4           5           6
    1   0.5234695  -0.0816354  -0.0023813  -0.0535300  -0.0161387   0.0036848
    2  -0.0816354   0.5600802  -0.0024265   0.0137333   0.0109317   0.0011421
    3  -0.0023813  -0.0024265   0.5882389   0.0044675  -0.0007932  -0.0061204
    4  -0.0535300   0.0137333   0.0044675   0.5249567   0.0843510  -0.0020507
    5  -0.0161387   0.0109317  -0.0007932   0.0843510   0.5581276   0.0028241
    6   0.0036848   0.0011421  -0.0061204  -0.0020507   0.0028241   0.5881169
    7  -0.0589843   0.0361212  -0.0245444   0.0048117  -0.0051535   0.0031103
    8   0.0301394  -0.2195562   0.1186743   0.0051167  -0.0006322  -0.0016551
    9  -0.0230717   0.1195834  -0.1399240  -0.0009866   0.0000775   0.0023936
   10   0.0050078   0.0039763   0.0030011  -0.0534876  -0.0183792  -0.0167193
   11  -0.0041487  -0.0011504   0.0016348  -0.0145281  -0.1689643  -0.1267185
   12  -0.0008616  -0.0004705   0.0021200  -0.0152453  -0.1280081  -0.1941117
   13   0.0052451   0.0059555  -0.0031611  -0.0505492   0.0012187  -0.0144099
   14  -0.0038982  -0.0012807  -0.0008051   0.0029938  -0.0933462   0.0944721
   15   0.0018480   0.0005766   0.0007439  -0.0158301   0.0960744  -0.2675541
   16  -0.1753289  -0.0873917  -0.0056184  -0.1733988   0.0891203  -0.0055880
   17  -0.0398136  -0.1397249  -0.0015590   0.0420763  -0.1426259   0.0009306
   18  -0.0066037  -0.0039653  -0.0637230  -0.0040890   0.0028370  -0.0625028
   19  -0.0020954   0.0051874   0.0017797  -0.2018475  -0.1242164   0.0323588
   20   0.0031596  -0.0015094  -0.0002770  -0.1344757  -0.1600755   0.0277916
   21  -0.0007315   0.0002242   0.0005731   0.0338329   0.0270407  -0.0608946
   22  -0.0579671  -0.0055409  -0.0444379   0.0049463  -0.0052487  -0.0031477
   23  -0.0061037  -0.0637953  -0.0556366   0.0030675  -0.0018363  -0.0000536
   24  -0.0458863  -0.0567683  -0.2902032   0.0016446  -0.0004367   0.0007581
   25  -0.1858166   0.1095945   0.0708947  -0.0019015  -0.0055534   0.0027618
   26   0.1184394  -0.1439950  -0.0588117  -0.0023348  -0.0015787   0.0012667
   27   0.0740032  -0.0578957  -0.0917052  -0.0017431   0.0003843  -0.0000850
            7           8           9          10          11          12
    1  -0.0589843   0.0301394  -0.0230717   0.0050078  -0.0041487  -0.0008616
    2   0.0361212  -0.2195562   0.1195834   0.0039763  -0.0011504  -0.0004705
    3  -0.0245444   0.1186743  -0.1399240   0.0030011   0.0016348   0.0021200
    4   0.0048117   0.0051167  -0.0009866  -0.0534876  -0.0145281  -0.0152453
    5  -0.0051535  -0.0006322   0.0000775  -0.0183792  -0.1689643  -0.1280081
    6   0.0031103  -0.0016551   0.0023936  -0.0167193  -0.1267185  -0.1941117
    7   0.0632076  -0.0242016   0.0220629  -0.0006876   0.0001923   0.0002291
    8  -0.0242016   0.2435470  -0.1338391  -0.0003550   0.0008326   0.0003480
    9   0.0220629  -0.1338391   0.1415242   0.0002843   0.0000268  -0.0009492
   10  -0.0006876  -0.0003550   0.0002843   0.0582271   0.0047366   0.0120679
   11   0.0001923   0.0008326   0.0000268   0.0047366   0.1882313   0.1442499
   12   0.0002291   0.0003480  -0.0009492   0.0120679   0.1442499   0.2009061
   13   0.0005717  -0.0018354   0.0011990   0.0016997  -0.0003954  -0.0035271
   14   0.0007958   0.0010076  -0.0000306  -0.0027557   0.0118419  -0.0207024
   15  -0.0014159  -0.0007076  -0.0002203  -0.0002375   0.0104446  -0.0202131
   16  -0.0089559  -0.0122540   0.0051442  -0.0119853   0.0141039   0.0062277
   17  -0.0322324  -0.0213270   0.0000441   0.0300038  -0.0196278  -0.0011149
   18   0.0175471   0.0112705   0.0044593   0.0225639  -0.0149873   0.0071072
   19   0.0001065  -0.0000553   0.0001317   0.0009894  -0.0019085  -0.0003385
   20   0.0003099   0.0003625  -0.0004635  -0.0162005  -0.0122207   0.0051983
   21  -0.0002189  -0.0003178  -0.0000435  -0.0191979  -0.0153249   0.0056318
   22   0.0008290   0.0002366  -0.0058098   0.0003278   0.0016232   0.0012446
   23   0.0060528   0.0088787   0.0261159  -0.0005234   0.0008215   0.0000937
   24  -0.0019291  -0.0047956  -0.0161471  -0.0014752   0.0005195  -0.0004072
   25  -0.0008986   0.0032085   0.0010460  -0.0000912   0.0003249   0.0002033
   26   0.0181156  -0.0131130  -0.0115143  -0.0005029   0.0002359   0.0004061
   27  -0.0148411   0.0110224   0.0089072  -0.0002874   0.0001552  -0.0000840
           13          14          15          16          17          18
    1   0.0052451  -0.0038982   0.0018480  -0.1753289  -0.0398136  -0.0066037
    2   0.0059555  -0.0012807   0.0005766  -0.0873917  -0.1397249  -0.0039653
    3  -0.0031611  -0.0008051   0.0007439  -0.0056184  -0.0015590  -0.0637230
    4  -0.0505492   0.0029938  -0.0158301  -0.1733988   0.0420763  -0.0040890
    5   0.0012187  -0.0933462   0.0960744   0.0891203  -0.1426259   0.0028370
    6  -0.0144099   0.0944721  -0.2675541  -0.0055880   0.0009306  -0.0625028
    7   0.0005717   0.0007958  -0.0014159  -0.0089559  -0.0322324   0.0175471
    8  -0.0018354   0.0010076  -0.0007076  -0.0122540  -0.0213270   0.0112705
    9   0.0011990  -0.0000306  -0.0002203   0.0051442   0.0000441   0.0044593
   10   0.0016997  -0.0027557  -0.0002375  -0.0119853   0.0300038   0.0225639
   11  -0.0003954   0.0118419   0.0104446   0.0141039  -0.0196278  -0.0149873
   12  -0.0035271  -0.0207024  -0.0202131   0.0062277  -0.0011149   0.0071072
   13   0.0593010  -0.0176767   0.0228601  -0.0204200   0.0238353  -0.0264433
   14  -0.0176767   0.1046043  -0.1106595   0.0188894  -0.0158370   0.0179936
   15   0.0228601  -0.1106595   0.2816758  -0.0073438   0.0039703   0.0090694
   16  -0.0204200   0.0188894  -0.0073438   0.4781611  -0.0025623   0.0158009
   17   0.0238353  -0.0158370   0.0039703  -0.0025623   0.3205017   0.0007748
   18  -0.0264433   0.0179936   0.0090694   0.0158009   0.0007748   0.0916840
   19   0.0044616   0.0006859   0.0002819  -0.0314837  -0.0134904   0.0027567
   20  -0.0101170  -0.0075186   0.0010385   0.0212127   0.0154292  -0.0034581
   21   0.0231824   0.0195303  -0.0034536  -0.0006690  -0.0009769   0.0008404
   22  -0.0004530   0.0007986   0.0000774  -0.0239891  -0.0191813  -0.0282463
   23  -0.0009996   0.0004622  -0.0003302  -0.0201395  -0.0106227  -0.0180917
   24   0.0001818   0.0003044  -0.0003396  -0.0074483  -0.0048623   0.0098924
   25   0.0001430   0.0001672  -0.0002400  -0.0325992   0.0113646   0.0067137
   26   0.0000147   0.0000665  -0.0004070  -0.0209788   0.0138346   0.0076266
   27   0.0001181  -0.0001026   0.0002917  -0.0005053   0.0027935   0.0031732
           19          20          21          22          23          24
    1  -0.0020954   0.0031596  -0.0007315  -0.0579671  -0.0061037  -0.0458863
    2   0.0051874  -0.0015094   0.0002242  -0.0055409  -0.0637953  -0.0567683
    3   0.0017797  -0.0002770   0.0005731  -0.0444379  -0.0556366  -0.2902032
    4  -0.2018475  -0.1344757   0.0338329   0.0049463   0.0030675   0.0016446
    5  -0.1242164  -0.1600755   0.0270407  -0.0052487  -0.0018363  -0.0004367
    6   0.0323588   0.0277916  -0.0608946  -0.0031477  -0.0000536   0.0007581
    7   0.0001065   0.0003099  -0.0002189   0.0008290   0.0060528  -0.0019291
    8  -0.0000553   0.0003625  -0.0003178   0.0002366   0.0088787  -0.0047956
    9   0.0001317  -0.0004635  -0.0000435  -0.0058098   0.0261159  -0.0161471
   10   0.0009894  -0.0162005  -0.0191979   0.0003278  -0.0005234  -0.0014752
   11  -0.0019085  -0.0122207  -0.0153249   0.0016232   0.0008215   0.0005195
   12  -0.0003385   0.0051983   0.0056318   0.0012446   0.0000937  -0.0004072
   13   0.0044616  -0.0101170   0.0231824  -0.0004530  -0.0009996   0.0001818
   14   0.0006859  -0.0075186   0.0195303   0.0007986   0.0004622   0.0003044
   15   0.0002819   0.0010385  -0.0034536   0.0000774  -0.0003302  -0.0003396
   16  -0.0314837   0.0212127  -0.0006690  -0.0239891  -0.0201395  -0.0074483
   17  -0.0134904   0.0154292  -0.0009769  -0.0191813  -0.0106227  -0.0048623
   18   0.0027567  -0.0034581   0.0008404  -0.0282463  -0.0180917   0.0098924
   19   0.2317144   0.1348884  -0.0364888  -0.0001708  -0.0001902  -0.0002568
   20   0.1348884   0.1646855  -0.0299723   0.0002525   0.0000815   0.0001294
   21  -0.0364888  -0.0299723   0.0568169   0.0003867  -0.0000884   0.0002455
   22  -0.0001708   0.0002525   0.0003867   0.0691919   0.0215977   0.0568213
   23  -0.0001902   0.0000815  -0.0000884   0.0215977   0.0694213   0.0677128
   24  -0.0002568   0.0001294   0.0002455   0.0568213   0.0677128   0.3070307
   25  -0.0016746   0.0009701  -0.0000958   0.0072850  -0.0027616  -0.0016521
   26  -0.0009009   0.0007655  -0.0001150   0.0054623  -0.0034110  -0.0018032
   27  -0.0002248   0.0000131   0.0002841   0.0231118  -0.0197220  -0.0108295
           25          26          27
    1  -0.1858166   0.1184394   0.0740032
    2   0.1095945  -0.1439950  -0.0578957
    3   0.0708947  -0.0588117  -0.0917052
    4  -0.0019015  -0.0023348  -0.0017431
    5  -0.0055534  -0.0015787   0.0003843
    6   0.0027618   0.0012667  -0.0000850
    7  -0.0008986   0.0181156  -0.0148411
    8   0.0032085  -0.0131130   0.0110224
    9   0.0010460  -0.0115143   0.0089072
   10  -0.0000912  -0.0005029  -0.0002874
   11   0.0003249   0.0002359   0.0001552
   12   0.0002033   0.0004061  -0.0000840
   13   0.0001430   0.0000147   0.0001181
   14   0.0001672   0.0000665  -0.0001026
   15  -0.0002400  -0.0004070   0.0002917
   16  -0.0325992  -0.0209788  -0.0005053
   17   0.0113646   0.0138346   0.0027935
   18   0.0067137   0.0076266   0.0031732
   19  -0.0016746  -0.0009009  -0.0002248
   20   0.0009701   0.0007655   0.0000131
   21  -0.0000958  -0.0001150   0.0002841
   22   0.0072850   0.0054623   0.0231118
   23  -0.0027616  -0.0034110  -0.0197220
   24  -0.0016521  -0.0018032  -0.0108295
   25   0.2155536  -0.1173147  -0.0796317
   26  -0.1173147   0.1471952   0.0633519
   27  -0.0796317   0.0633519   0.0900475
 **********************************************************************
 **                                                                  **
 **                       VIBRATIONAL ANALYSIS                       **
 **                       --------------------                       **
 **                                                                  **
 **        VIBRATIONAL FREQUENCIES (CM**-1) AND NORMAL MODES         **
 **     FORCE CONSTANTS (mDYN/ANGSTROM) AND REDUCED MASSES (AMU)     **
 **                  INFRARED INTENSITIES (KM/MOL)                   **
 **                                                                  **
 **********************************************************************
 

 Mode:                 1                      2                      3
 Frequency:      -118.34                 179.61                 422.69
 Force Cnst:      0.0089                 0.0240                 0.2336
 Red. Mass:       1.0732                 1.2632                 2.2190
 IR Active:          YES                    YES                    YES
 IR Intens:        0.751                  4.769                  3.152
 Raman Active:       YES                    YES                    YES
               X      Y      Z        X      Y      Z        X      Y      Z
 C         -0.020  0.006 -0.012   -0.004  0.002  0.064    0.166 -0.074  0.002
 C          0.017  0.006  0.049    0.001  0.001  0.037   -0.167 -0.072  0.009
 H          0.133 -0.240 -0.405    0.130 -0.043 -0.028    0.481 -0.098 -0.091
 H         -0.026 -0.188  0.241    0.302  0.271 -0.239   -0.421 -0.104  0.049
 H          0.115  0.255  0.160   -0.352 -0.337 -0.085   -0.344 -0.087  0.024
 O          0.002 -0.014 -0.041    0.003 -0.003 -0.114    0.001  0.179 -0.012
 H         -0.010 -0.020 -0.184    0.053  0.076  0.579    0.040 -0.356 -0.021
 H         -0.313  0.429 -0.057   -0.224  0.078  0.098    0.230 -0.082 -0.011
 H          0.095 -0.148  0.454    0.076 -0.032  0.281    0.001 -0.369  0.100
 TransDip  -0.002 -0.017  0.022   -0.001  0.003  0.070   -0.001 -0.057  0.005

 Mode:                 4                      5                      6
 Frequency:       929.72                1110.69                1159.83
 Force Cnst:      2.1340                 1.6304                 1.1779
 Red. Mass:       4.1903                 2.2432                 1.4862
 IR Active:          YES                    YES                    YES
 IR Intens:       30.965                 73.538                 35.336
 Raman Active:       YES                    YES                    YES
               X      Y      Z        X      Y      Z        X      Y      Z
 C         -0.288 -0.125  0.006   -0.085 -0.167  0.025   -0.082  0.015  0.095
 C          0.292 -0.121 -0.004   -0.092  0.158  0.019   -0.086 -0.027  0.015
 H         -0.054 -0.077  0.008   -0.517 -0.218  0.013    0.014 -0.161 -0.194
 H          0.044 -0.084 -0.006   -0.425  0.151  0.022    0.215  0.028 -0.068
 H          0.086 -0.148 -0.012   -0.172 -0.064 -0.064    0.244  0.006 -0.002
 O         -0.002  0.258 -0.000    0.176  0.002 -0.021    0.109  0.006 -0.048
 H          0.471 -0.352  0.011    0.252 -0.287 -0.034   -0.318  0.270 -0.021
 H         -0.124 -0.180 -0.001   -0.076  0.166 -0.052    0.534  0.186 -0.092
 H         -0.439 -0.317 -0.017    0.240  0.313 -0.067   -0.423 -0.283 -0.158
 TransDip   0.003 -0.178 -0.003   -0.275  0.005 -0.006   -0.189 -0.002  0.021

 Mode:                 7                      8                      9
 Frequency:      1170.45                1216.54                1265.41
 Force Cnst:      1.0065                 1.5346                 1.5076
 Red. Mass:       1.2470                 1.7599                 1.5980
 IR Active:          YES                    YES                    YES
 IR Intens:        4.532                 39.851                  4.791
 Raman Active:       YES                    YES                    YES
               X      Y      Z        X      Y      Z        X      Y      Z
 C         -0.032  0.010 -0.065   -0.095 -0.024 -0.093    0.060 -0.111 -0.007
 C         -0.025 -0.001  0.114   -0.096  0.005 -0.081   -0.035 -0.122  0.013
 H          0.273  0.168  0.094    0.359  0.218  0.165   -0.387 -0.090  0.097
 H         -0.317  0.317 -0.178    0.409 -0.228  0.114    0.305 -0.002 -0.108
 H          0.513 -0.342 -0.113   -0.198  0.310  0.096    0.293  0.058  0.051
 O          0.039 -0.002 -0.022    0.137  0.013  0.079   -0.019  0.124 -0.003
 H         -0.160  0.084 -0.231   -0.142  0.139  0.166   -0.389  0.332 -0.000
 H         -0.262 -0.247  0.062   -0.352 -0.350  0.073   -0.198  0.171 -0.017
 H          0.018 -0.059  0.137    0.030 -0.059  0.192    0.378  0.339 -0.040
 TransDip  -0.067 -0.003  0.011   -0.193  0.000 -0.060    0.023 -0.066  0.003

 Mode:                10                     11                     12
 Frequency:      1471.46                1505.89                1509.50
 Force Cnst:      1.4266                 1.4105                 1.5239
 Red. Mass:       1.1183                 1.0557                 1.1352
 IR Active:          YES                    YES                    YES
 IR Intens:       12.039                  6.272                  0.742
 Raman Active:       YES                    YES                    YES
               X      Y      Z        X      Y      Z        X      Y      Z
 C         -0.050 -0.031  0.002    0.032 -0.018 -0.035   -0.069 -0.026 -0.005
 C         -0.055  0.033  0.002   -0.003  0.035 -0.021    0.078 -0.007 -0.002
 H          0.392  0.090  0.067   -0.238  0.278  0.441    0.272  0.024  0.006
 H          0.388 -0.116  0.104   -0.067 -0.301  0.299   -0.325 -0.163  0.160
 H          0.357 -0.172 -0.132    0.119 -0.296 -0.179   -0.359 -0.210 -0.044
 O         -0.042  0.001 -0.001    0.003  0.002 -0.008   -0.000  0.001 -0.001
 H          0.244 -0.337  0.015   -0.030  0.106  0.172   -0.292  0.424 -0.068
 H          0.305  0.183 -0.129   -0.038  0.348 -0.100    0.352  0.021 -0.111
 H          0.238  0.319  0.035   -0.144 -0.357  0.163    0.259  0.287  0.159
 TransDip  -0.110  0.004 -0.016   -0.074 -0.003  0.031   -0.027 -0.002 -0.001

 Mode:                13                     14                     15
 Frequency:      1519.79                1524.89                1529.20
 Force Cnst:      1.4272                 1.4576                 1.4516
 Red. Mass:       1.0487                 1.0639                 1.0536
 IR Active:          YES                    YES                    YES
 IR Intens:        0.927                  3.071                  5.842
 Raman Active:       YES                    YES                    YES
               X      Y      Z        X      Y      Z        X      Y      Z
 C         -0.000 -0.014  0.033   -0.029 -0.017 -0.032    0.003 -0.048  0.016
 C          0.005 -0.010 -0.048    0.008 -0.048 -0.011    0.019 -0.009  0.027
 H          0.290 -0.058 -0.114   -0.009  0.208  0.295    0.339  0.180  0.245
 H         -0.399 -0.122  0.107   -0.230  0.300 -0.309    0.084  0.163 -0.148
 H          0.321  0.131  0.006    0.091  0.483  0.232   -0.292  0.042  0.078
 O          0.000 -0.004 -0.002   -0.005 -0.017 -0.007    0.006 -0.014  0.007
 H          0.027  0.126  0.573    0.081 -0.056  0.229   -0.053 -0.010 -0.327
 H         -0.227  0.109  0.036    0.309  0.183 -0.151   -0.265  0.511 -0.076
 H         -0.075  0.163 -0.385    0.098 -0.074  0.319   -0.172  0.025 -0.403
 TransDip  -0.002  0.024  0.019    0.026  0.010  0.049   -0.029  0.028 -0.066

 Mode:                16                     17                     18
 Frequency:      3041.30                3055.69                3114.04
 Force Cnst:      5.6023                 5.6689                 6.3165
 Red. Mass:       1.0280                 1.0305                 1.1055
 IR Active:          YES                    YES                    YES
 IR Intens:       74.611                 33.436                124.969
 Raman Active:       YES                    YES                    YES
               X      Y      Z        X      Y      Z        X      Y      Z
 C         -0.018 -0.021 -0.004   -0.023 -0.023 -0.005   -0.006  0.012 -0.045
 C         -0.019  0.025 -0.005    0.020 -0.022  0.005   -0.000 -0.007 -0.081
 H         -0.055  0.344 -0.244   -0.051  0.373 -0.262    0.039 -0.272  0.179
 H         -0.024 -0.313 -0.338    0.014  0.273  0.291    0.031  0.417  0.421
 H          0.044 -0.205  0.443   -0.048  0.191 -0.402    0.058 -0.271  0.547
 O         -0.004  0.000  0.000   -0.000 -0.003  0.000   -0.001 -0.000 -0.000
 H          0.240  0.194 -0.052   -0.228 -0.179  0.049   -0.082 -0.067 -0.002
 H          0.087  0.101  0.402    0.106  0.118  0.449    0.083  0.098  0.353
 H          0.214 -0.168 -0.111    0.249 -0.189 -0.128   -0.045  0.036  0.012
 TransDip  -0.274  0.020 -0.036   -0.018 -0.184 -0.004   -0.016  0.008 -0.358

 Mode:                19                     20                     21
 Frequency:      3118.34                3134.70                3138.26
 Force Cnst:      6.3447                 6.3935                 6.4117
 Red. Mass:       1.1074                 1.1043                 1.1049
 IR Active:          YES                    YES                    YES
 IR Intens:        8.917                 26.708                 48.474
 Raman Active:       YES                    YES                    YES
               X      Y      Z        X      Y      Z        X      Y      Z
 C         -0.004  0.014 -0.081   -0.048  0.063  0.019    0.028 -0.037 -0.002
 C         -0.005 -0.002  0.048   -0.028 -0.036  0.005   -0.050 -0.064 -0.001
 H          0.071 -0.439  0.291    0.042 -0.292  0.219   -0.029  0.218 -0.159
 H         -0.022 -0.221 -0.223    0.006  0.108  0.124    0.011  0.248  0.280
 H         -0.030  0.162 -0.329   -0.013  0.040 -0.104   -0.026  0.048 -0.138
 O         -0.000 -0.000  0.000    0.000 -0.000 -0.001    0.000 -0.000  0.000
 H          0.113  0.089 -0.012    0.344  0.271 -0.073    0.593  0.470 -0.128
 H          0.134  0.168  0.608   -0.043 -0.022 -0.150    0.016 -0.001  0.031
 H         -0.146  0.114  0.053    0.568 -0.433 -0.290   -0.299  0.229  0.154
 TransDip  -0.031  0.030 -0.085   -0.149  0.060  0.041   -0.038 -0.219 -0.009

 STANDARD THERMODYNAMIC QUANTITIES AT   298.15 K  AND     1.00 ATM

   This Molecule has  1 Imaginary Frequencies
   Zero point vibrational energy:       50.204 kcal/mol

   Atom    1 Element C  Has Mass   12.00000
   Atom    2 Element C  Has Mass   12.00000
   Atom    3 Element H  Has Mass    1.00783
   Atom    4 Element H  Has Mass    1.00783
   Atom    5 Element H  Has Mass    1.00783
   Atom    6 Element O  Has Mass   15.99491
   Atom    7 Element H  Has Mass    1.00783
   Atom    8 Element H  Has Mass    1.00783
   Atom    9 Element H  Has Mass    1.00783
   Molecular Mass:    46.041890 amu
   Principal axes and moments of inertia in amu*Bohr^2:
                             1           2           3
    Eigenvalues --       46.29230   181.64931   204.86783
          X               1.00000     0.00003     0.00018
          Y              -0.00003     1.00000    -0.00043
          Z              -0.00018     0.00043     1.00000
   Rotational Symmetry Number is   1
   The Molecule is an Asymmetric Top
   Translational Enthalpy:        0.889 kcal/mol
   Rotational Enthalpy:           0.889 kcal/mol
   Vibrational Enthalpy:         50.862 kcal/mol
   gas constant (RT):             0.592 kcal/mol
   Translational Entropy:        37.406  cal/mol.K
   Rotational Entropy:           22.070  cal/mol.K
   Vibrational Entropy:           3.633  cal/mol.K

   Total Enthalpy:               53.232 kcal/mol
   Total Entropy:                63.109  cal/mol.K
Archival summary:
1\1\node018\FREQ\ProcedureUnspecified\6-31G*\126\guest94\SunMar2217:02:132020SunMar2217:02:132020\0\\#,FREQ,ProcedureUnspecified,6-31G*,\\0,1\O\C,1,1.42085\H,2,1.09384,1,111.252\H,2,1.09402,1,108.442,3,-119.694,0\H,2,1.09419,1,109.613,3,122.099,0\C,1,1.42134,2,111.813,3,-50.581,0\H,6,1.09389,1,108.259,2,-157.083,0\H,6,1.09403,1,109.565,2,84.6741,0\H,6,1.09406,1,111.747,2,-37.4506,0\\\@

 Total job time:  12.21s(wall), 32.38s(cpu) 
 Sun Mar 22 17:02:13 2020

        *************************************************************
        *                                                           *
        *  Thank you very much for using Q-Chem.  Have a nice day.  *
        *                                                           *
        *************************************************************


