                  Welcome to Q-Chem
     A Quantum Leap Into The Future Of Chemistry


 Q-Chem 5.2 (devel), Q-Chem, Inc., Pleasanton, CA (2019)

 Yihan Shao,  Zhengting Gan,  E. Epifanovsky,  A. T. B. Gilbert,  M. Wormit,  
 J. Kussmann,  A. W. Lange,  A. Behn,  Jia Deng,  Xintian Feng,  D. Ghosh,  
 M. Goldey,  P. R. Horn,  L. D. Jacobson,  I. Kaliman,  T. Kus,  A. Landau,  
 Jie Liu,  E. I. Proynov,  R. M. Richard,  R. P. Steele,  E. J. Sundstrom,  
 H. L. Woodcock III,  P. M. Zimmerman,  D. Zuev,  B. Albrecht,  E. Alguire,  
 S. A. Baeppler,  D. Barton,  Z. Benda,  Y. A. Bernard,  E. J. Berquist,  
 K. B. Bravaya,  H. Burton,  D. Casanova,  Chun-Min Chang,  Yunqing Chen,  
 A. Chien,  K. D. Closser,  M. P. Coons,  S. Coriani,  S. Dasgupta,  
 A. L. Dempwolff,  M. Diedenhofen,  Hainam Do,  R. G. Edgar,  Po-Tung Fang,  
 S. Faraji,  S. Fatehi,  Qingguo Feng,  K. D. Fenk,  J. Fosso-Tande,  
 J. Gayvert,  Qinghui Ge,  A. Ghysels,  G. Gidofalvi,  J. Gomes,  
 J. Gonthier,  A. Gunina,  D. Hait,  M. W. D. Hanson-Heine,  
 P. H. P. Harbach,  A. W. Hauser,  M. F. Herbst,  J. E. Herr,  
 E. G. Hohenstein,  Z. C. Holden,  Kerwin Hui,  B. C. Huynh,  T.-C. Jagau,  
 Hyunjun Ji,  B. Kaduk,  K. Khistyaev,  Jaehoon Kim,  P. Klunzinger,  K. Koh,  
 D. Kosenkov,  L. Koulias,  T. Kowalczyk,  C. M. Krauter,  A. Kunitsa,  
 Ka Un Lao,  A. Laurent,  K. V. Lawler,  Joonho Lee,  D. Lefrancois,  
 S. Lehtola,  D. S. Levine,  Yi-Pei Li,  You-Sheng Lin,  Fenglai Liu,  
 E. Livshits,  A. Luenser,  P. Manohar,  E. Mansoor,  S. F. Manzer,  
 Shan-Ping Mao,  Yuezhi Mao,  N. Mardirossian,  A. V. Marenich,  
 T. Markovich,  L. A. Martinez-Martinez,  S. A. Maurer,  N. J. Mayhall,  
 S. C. McKenzie,  J.-M. Mewes,  P. Morgante,  A. F. Morrison,  
 J. W. Mullinax,  K. Nanda,  T. S. Nguyen-Beck,  R. Olivares-Amaya,  
 J. A. Parkhill,  Zheng Pei,  T. M. Perrine,  F. Plasser,  P. Pokhilko,  
 S. Prager,  A. Prociuk,  E. Ramos,  D. R. Rehn,  F. Rob,  M. Scheurer,  
 M. Schneider,  N. Sergueev,  S. M. Sharada,  S. Sharma,  D. W. Small,  
 T. Stauch,  T. Stein,  Yu-Chuan Su,  A. J. W. Thom,  A. Tkatchenko,  
 T. Tsuchimochi,  N. M. Tubman,  L. Vogt,  M. L. Vidal,  O. Vydrov,  
 M. A. Watson,  J. Wenzel,  M. de Wergifosse,  T. A. Wesolowski,  A. White,  
 J. Witte,  A. Yamada,  Jun Yang,  K. Yao,  S. Yeganeh,  S. R. Yost,  
 Zhi-Qiang You,  A. Zech,  Igor Ying Zhang,  Xing Zhang,  Yan Zhao,  
 Ying Zhu,  B. R. Brooks,  G. K. L. Chan,  C. J. Cramer,  M. S. Gordon,  
 W. J. Hehre,  A. Klamt,  M. W. Schmidt,  C. D. Sherrill,  D. G. Truhlar,  
 A. Aspuru-Guzik,  R. Baer,  A. T. Bell,  N. A. Besley,  Jeng-Da Chai,  
 A. E. DePrince, III,  R. A. DiStasio Jr.,  A. Dreuw,  B. D. Dunietz,  
 T. R. Furlani,  Chao-Ping Hsu,  Yousung Jung,  Jing Kong,  D. S. Lambrecht,  
 WanZhen Liang,  C. Ochsenfeld,  V. A. Rassolov,  L. V. Slipchenko,  
 J. E. Subotnik,  T. Van Voorhis,  J. M. Herbert,  A. I. Krylov,  
 P. M. W. Gill,  M. Head-Gordon

 Contributors to earlier versions of Q-Chem not listed above: 
 R. D. Adamson,  B. Austin,  J. Baker,  G. J. O. Beran,  K. Brandhorst,  
 S. T. Brown,  E. F. C. Byrd,  A. K. Chakraborty,  C.-L. Cheng,  
 Siu Hung Chien,  D. M. Chipman,  D. L. Crittenden,  H. Dachsel,  
 R. J. Doerksen,  A. D. Dutoi,  L. Fusti-Molnar,  W. A. Goddard III,  
 A. Golubeva-Zadorozhnaya,  S. R. Gwaltney,  G. Hawkins,  A. Heyden,  
 S. Hirata,  G. Kedziora,  F. J. Keil,  C. Kelley,  Jihan Kim,  R. A. King,  
 R. Z. Khaliullin,  P. P. Korambath,  W. Kurlancheek,  A. M. Lee,  M. S. Lee,  
 S. V. Levchenko,  Ching Yeh Lin,  D. Liotard,  R. C. Lochan,  I. Lotan,  
 P. E. Maslen,  N. Nair,  D. P. O'Neill,  D. Neuhauser,  E. Neuscamman,  
 C. M. Oana,  R. Olson,  B. Peters,  R. Peverati,  P. A. Pieniazek,  
 Y. M. Rhee,  J. Ritchie,  M. A. Rohrdanz,  E. Rosta,  N. J. Russ,  
 H. F. Schaefer III,  N. E. Schultz,  N. Shenvi,  A. C. Simmonett,  A. Sodt,  
 D. Stuck,  K. S. Thanthiriwatte,  V. Vanovschi,  Tao Wang,  A. Warshel,  
 C. F. Williams,  Q. Wu,  X. Xu,  W. Zhang

 Please cite Q-Chem as follows:
 Y. Shao et al., Mol. Phys. 113, 184-215 (2015)
 DOI: 10.1080/00268976.2014.952696

 Q-Chem 5.2.1 for Intel X86 EM64T Linux

 Parts of Q-Chem use Armadillo 8.300.2 (Tropical Shenanigans).
 http://arma.sourceforge.net/

 Q-Chem begins on Mon Mar  9 18:26:08 2020  

Host: node018
0

     Scratch files written to /tmp/ypli/105348.h81/qchem14992//
NAlpha2: 26
NElect   26
Mult     1

Checking the input file for inconsistencies... 	...done.

--------------------------------------------------------------
User input:
--------------------------------------------------------------
$rem
jobtype = freq
exchange = b3lyp
basis = 6-31g*
$end

$molecule
0 1
C     -6.49413326    0.83935851    0.03209537
C     -5.72699927    1.92369104   -0.10952584
H     -6.18200180    1.29224446    0.19371974
H     -6.89758954    0.56158414    1.00078369
H     -6.73375375    0.20815236   -0.81787722
O     -5.23691162    1.16742188    0.01998179
H     -5.48737524    2.55490100    0.74044295
H     -5.32354596    2.20146036   -1.07821682
H     -4.86504255    0.95585037    0.88941372
$end
--------------------------------------------------------------
 ----------------------------------------------------------------
             Standard Nuclear Orientation (Angstroms)
    I     Atom           X                Y                Z
 ----------------------------------------------------------------
    1      C       0.8230683231     0.1218509678    -0.0521197882
    2      C      -0.4783094505     0.3935871626    -0.1821332198
    3      H       0.2976612031     0.1004850107    -0.2804726363
    4      H       1.3606704978    -0.4237741055    -0.8212555454
    5      H       1.3763918833     0.4396851528     0.8260072273
    6      O      -0.3298106695    -0.3728825509     0.2862399900
    7      H      -1.0316383895     0.0757555577    -1.0602578064
    8      H      -1.0159061920     0.9392127380     0.5870059472
    9      H      -0.4172468819    -1.2409327296    -0.1354290578
 ----------------------------------------------------------------
 Molecular Point Group                 C1    NOp =  1
 Largest Abelian Subgroup              C1    NOp =  1
 Nuclear Repulsion Energy =         114.94316526 hartrees
 There are       13 alpha and       13 beta electrons
 Requested basis set is 6-31G(d)
 There are 24 shells and 57 basis functions

 Total QAlloc Memory Limit   2000 MB
 Mega-Array Size       188 MB
 MEM_STATIC part       192 MB

                       Distance Matrix (Angstroms)
             C (  1)   C (  2)   H (  3)   H (  4)   H (  5)   O (  6)
   C (  2)  1.335787
   H (  3)  0.573284  0.835290
   H (  4)  1.085492  2.111493  1.302798
   H (  5)  1.085492  2.111490  1.582092  1.859915
   O (  6)  1.299376  0.910440  0.969000  2.021599  1.965386
   H (  7)  2.111493  1.085492  1.541335  2.455564  3.080430  1.583318
   H (  8)  2.111490  1.085492  1.783660  3.080430  2.455553  1.510888
   H (  9)  1.844587  1.636327  1.526936  2.073426  2.639314  0.969000
             H (  7)   H (  8)
   H (  8)  1.859915
   H (  9)  1.722339  2.373466
 
 A cutoff of  1.0D-11 yielded    300 shell pairs
 There are      1734 function pairs
 Smallest overlap matrix eigenvalue = 2.29E-04
 Guess from superposition of atomic densities
 Warning:  Energy on first SCF cycle will be non-variational
 SAD guess density has 26.000000 electrons

 -----------------------------------------------------------------------
  General SCF calculation program by
  Eric Jon Sundstrom, Paul Horn, Yuezhi Mao, Dmitri Zuev, Alec White,
  David Stuck, Shaama M.S., Shane Yost, Joonho Lee, David Small,
  Daniel Levine, Susi Lehtola, Hugh Burton, Evgeny Epifanovsky,
  Bang C. Huynh
 -----------------------------------------------------------------------
 Exchange:     0.2000 Hartree-Fock + 0.0800 Slater + 0.7200 B88
 Correlation:  0.1900 VWN1RPA + 0.8100 LYP
 Using SG-1 standard quadrature grid
 using 2 threads for integral computing
 -------------------------------------------------------
 OpenMP Integral computing Module                
 Release: version 2.0, May 2017, Q-Chem Inc. Pleasanton 
 -------------------------------------------------------
 A restricted SCF calculation will be
 performed using DIIS
 SCF converges when DIIS error is below 1.0e-08
 ---------------------------------------
  Cycle       Energy         DIIS error
 ---------------------------------------
    1    -157.4173644103      2.54e-01  
    2    -152.5847505266      3.13e-02  
    3    -151.9828624163      5.04e-02  
    4    -152.9659939089      4.33e-03  
    5    -152.9527236020      6.82e-03  
    6    -152.9748611041      1.56e-03  
    7    -152.9755956612      7.97e-04  
    8    -152.9758504001      1.19e-04  
    9    -152.9758544666      5.73e-05  
   10    -152.9758558611      5.32e-06  
   11    -152.9758558726      1.08e-06  
   12    -152.9758558732      2.17e-07  
   13    -152.9758558732      6.94e-08  
   14    -152.9758558733      7.91e-09  Convergence criterion met
 ---------------------------------------
 SCF time:   CPU 5.50s  wall 3.00s 
 SCF   energy in the final basis set =     -152.9758558733
 Total energy in the final basis set =     -152.9758558733
 
 --------------------------------------------------------------
 
                    Orbital Energies (a.u.)
 --------------------------------------------------------------
 
 Alpha MOs
 -- Occupied --
-19.2971 -10.3372 -10.3141  -1.6523  -1.0269  -0.8553  -0.7783  -0.6476
 -0.5592  -0.4728  -0.4153  -0.3122  -0.0721
 -- Virtual --
  0.0132   0.0697   0.0903   0.1600   0.1836   0.2080   0.2707   0.2909
  0.3619   0.4704   0.5208   0.5855   0.6654   0.7179   0.7580   0.8051
  0.8666   0.9001   0.9143   0.9948   1.0717   1.1602   1.2800   1.3144
  1.4108   1.5051   1.6356   1.7661   1.8102   2.0363   2.1487   2.1974
  2.2819   2.4129   2.5536   2.6750   2.7892   2.8538   3.0815   3.7769
  4.0796   4.1441   4.4136   5.3618
 --------------------------------------------------------------
 
          Ground-State Mulliken Net Atomic Charges

     Atom                 Charge (a.u.)
  ----------------------------------------
      1 C                     0.513601
      2 C                     0.305499
      3 H                    -0.932617
      4 H                    -0.088445
      5 H                     0.111822
      6 O                     0.181672
      7 H                    -0.126739
      8 H                     0.040418
      9 H                    -0.005211
  ----------------------------------------
  Sum of atomic charges =     0.000000

 -----------------------------------------------------------------
                    Cartesian Multipole Moments
 -----------------------------------------------------------------
    Charge (ESU x 10^10)
                -0.0000
    Dipole Moment (Debye)
         X       0.5453      Y       0.6641      Z       1.5054
       Tot       1.7334
    Quadrupole Moments (Debye-Ang)
        XX     -21.3540     XY       0.6568     YY     -22.9017
        XZ       0.4040     YZ      -1.1249     ZZ     -22.7632
    Octopole Moments (Debye-Ang^2)
       XXX      -1.5973    XXY      -0.0817    XYY       0.8289
       YYY       2.2890    XXZ       3.8045    XYZ       0.1218
       YYZ       2.7539    XZZ       0.2562    YZZ       1.0600
       ZZZ       7.7061
    Hexadecapole Moments (Debye-Ang^3)
      XXXX     -89.0166   XXXY       3.5971   XXYY     -24.5320
      XYYY       0.7713   YYYY     -58.2352   XXXZ       1.7766
      XXYZ      -2.0705   XYYZ       0.1361   YYYZ      -5.7169
      XXZZ     -25.8817   XYZZ       0.8551   YYZZ     -17.0951
      XZZZ      -1.6080   YZZZ      -3.7702   ZZZZ     -49.9873
 -----------------------------------------------------------------
 Calculating MO derivatives via CPSCF
    1     0    30    0.0678365  
    2     0    30    0.0077006  
    3     0    30    0.0004729  
    4    13    17    0.0000178  
    5    30     0    0.0000005  Converged
 Time for AOints: 0.4 s (CPU) 0.2 s (wall)
 ------------------------------------------------------------------------------
                     AOints        : Timing summary (seconds)
 ------------------------------------------------------------------------------
     job step          cpu (% of tot)      sys (% of tot)     wall (% of tot)
 ------------------------------------------------------------------------------
  AOints            0.3886E+00 ( 3.9)   0.3000E-05 ( 7.0)   0.2213E+00 ( 4.2)
 ------------------------------------------------------------------------------
   Grand Totals     0.1006E+02          0.4300E-04          0.5219E+01
 ------------------------------------------------------------------------------
 Polarizability Matrix (a.u.)
            1           2           3
    1 -50.3430512  -7.0644347  -3.1798538
    2  -7.0644347 -48.5785739 -18.3567379
    3  -3.1798538 -18.3567379 -43.9956305
 Calculating analytic Hessian of the SCF energy
 
 Direct stationary perturbation theory relativistic correction:
 
 rels  =       0.047981458734
 relv  =      -0.211554512888
 rel2e =       0.083755866123
 E_rel =      -0.079817188031
 
 Hessian of the SCF Energy
            1           2           3           4           5           6
    1   4.9977993   0.1411206   3.5475971  -0.0803023   0.3007340  -0.2140570
    2   0.1411206  -1.7427462   0.4348926  -0.0290018   0.0767796   0.0113031
    3   3.5475971   0.4348926  -0.3945962  -0.0273635  -0.1316214  -0.1117964
    4  -0.0803023  -0.0290018  -0.0273635   0.1483809  -1.2959987   0.6806013
    5   0.3007340   0.0767796  -0.1316214  -1.2959987   3.7994869  -2.4708251
    6  -0.2140570   0.0113031  -0.1117964   0.6806013  -2.4708251   0.9419943
    7  -5.3483060  -0.2927571  -3.0039267  -0.6385273   0.4659930   0.1071992
    8  -0.1696235   1.8720540  -0.2569931   0.3497162   0.1665481  -0.1502192
    9  -3.3758477  -0.1844106   0.4578565   0.1727192  -0.0715137   0.1897133
   10  -0.0995455   0.0473989   0.0296077   0.0230765  -0.0231412   0.0255829
   11  -0.0227206  -0.1426806   0.0329436  -0.0633773   0.0343280  -0.0069594
   12   0.0530033  -0.0699170  -0.0790579   0.0049706   0.0300375   0.0113940
   13   0.0048388  -0.0356883  -0.1132252  -0.0469500  -0.0435087   0.0106590
   14   0.0092023  -0.0082001  -0.1057912   0.0617125  -0.0078203   0.0246888
   15  -0.0603477  -0.0965884  -0.1745404  -0.0528056  -0.0095203   0.0352313
   16   0.6869293   0.2952521  -0.4450621   0.7195689   0.5212844  -0.5897298
   17  -0.1156402   0.1342371  -0.1499125   1.0590860  -3.8479839   2.7309859
   18   0.0866060  -0.0463587   0.1395734  -0.7483416   2.7619565  -0.8542565
   19  -0.0276496   0.0165069  -0.0182498  -0.0449907  -0.0437621  -0.0593711
   20  -0.0408279  -0.0177552   0.0546234  -0.0173645  -0.0728451  -0.0665435
   21   0.0252057   0.0067652   0.0280102  -0.0488219  -0.0574316  -0.1439000
   22  -0.0316627  -0.0119569   0.0068290  -0.1051413   0.0794396  -0.0008965
   23   0.0166523   0.0027643  -0.0212225   0.0046874  -0.0588866  -0.0687595
   24   0.0196670   0.0176195   0.0171381   0.0321859  -0.1000745  -0.1309391
   25  -0.1021013  -0.1308744   0.0237936   0.0248854   0.0389597   0.0400118
   26  -0.1188968  -0.1744529   0.1430810  -0.0694598  -0.0896067  -0.0036712
   27  -0.0818268  -0.0733055   0.1174127  -0.0131442   0.0489925   0.0625592
            7           8           9          10          11          12
    1  -5.3483060  -0.1696235  -3.3758477  -0.0995455  -0.0227206   0.0530033
    2  -0.2927571   1.8720540  -0.1844106   0.0473989  -0.1426806  -0.0699170
    3  -3.0039267  -0.2569931   0.4578565   0.0296077   0.0329436  -0.0790579
    4  -0.6385273   0.3497162   0.1727192   0.0230765  -0.0633773   0.0049706
    5   0.4659930   0.1665481  -0.0715137  -0.0231412   0.0343280   0.0300375
    6   0.1071992  -0.1502192   0.1897133   0.0255829  -0.0069594   0.0113940
    7   6.1099576   0.1757627   2.6438782  -0.0473907   0.0021695  -0.0015535
    8   0.1757627  -1.9800508   0.0256427   0.0432106  -0.0112352  -0.0064833
    9   2.6438782   0.0256427  -0.4840038   0.0557785  -0.0456279  -0.0270160
   10  -0.0473907   0.0432106   0.0557785   0.0967066  -0.0809564  -0.0872452
   11   0.0021695  -0.0112352  -0.0456279  -0.0809564   0.0500180   0.0936578
   12  -0.0015535  -0.0064833  -0.0270160  -0.0872452   0.0936578   0.1430538
   13   0.0049407   0.0042302   0.0317783   0.0147962   0.0069664   0.0076306
   14  -0.0022412   0.0008275   0.0084063  -0.0059313   0.0099838  -0.0112184
   15  -0.0046327   0.0134716   0.0299251  -0.0006920  -0.0266132  -0.0414567
   16   0.0312918  -0.4522863   0.5433493  -0.0036129   0.1672500   0.0179345
   17  -0.1930251  -0.1052310   0.2321576   0.0477089   0.0826791  -0.0583358
   18   0.3789901   0.3107928  -0.2133440   0.0133314  -0.0402707  -0.0109171
   19  -0.0718421  -0.0027741  -0.0244936   0.0004785   0.0061988   0.0036567
   20  -0.0678256   0.0259679  -0.0006846  -0.0094124  -0.0018236   0.0007592
   21  -0.0444820   0.0343989   0.0065311  -0.0100094   0.0066743   0.0047553
   22   0.0069999   0.0091378  -0.0104860   0.0065716  -0.0116614   0.0043313
   23   0.0217831  -0.0164418   0.0086861   0.0059786   0.0042654  -0.0035419
   24   0.0142160  -0.0131534   0.0127686  -0.0006337   0.0014101  -0.0076932
   25  -0.0471238   0.0426265  -0.0366762   0.0089197  -0.0038690  -0.0027283
   26  -0.1098593   0.0475613   0.0273441  -0.0248557  -0.0255349   0.0250419
   27  -0.0896886   0.0425430   0.0275691  -0.0257203  -0.0152147   0.0069378
           13          14          15          16          17          18
    1   0.0048388   0.0092023  -0.0603477   0.6869293  -0.1156402   0.0866060
    2  -0.0356883  -0.0082001  -0.0965884   0.2952521   0.1342371  -0.0463587
    3  -0.1132252  -0.1057912  -0.1745404  -0.4450621  -0.1499125   0.1395734
    4  -0.0469500   0.0617125  -0.0528056   0.7195689   1.0590860  -0.7483416
    5  -0.0435087  -0.0078203  -0.0095203   0.5212844  -3.8479839   2.7619565
    6   0.0106590   0.0246888   0.0352313  -0.5897298   2.7309859  -0.8542565
    7   0.0049407  -0.0022412  -0.0046327   0.0312918  -0.1930251   0.3789901
    8   0.0042302   0.0008275   0.0134716  -0.4522863  -0.1052310   0.3107928
    9   0.0317783   0.0084063   0.0299251   0.5433493   0.2321576  -0.2133440
   10   0.0147962  -0.0059313  -0.0006920  -0.0036129   0.0477089   0.0133314
   11   0.0069664   0.0099838  -0.0266132   0.1672500   0.0826791  -0.0402707
   12   0.0076306  -0.0112184  -0.0414567   0.0179345  -0.0583358  -0.0109171
   13   0.1196912   0.0478595   0.0970236  -0.1101753   0.0173087  -0.0360448
   14   0.0478595   0.0432193   0.0816772  -0.1171339  -0.0653044   0.0050274
   15   0.0970236   0.0816772   0.1922102   0.0107374   0.0744896  -0.0034042
   16  -0.1101753  -0.1171339   0.0107374  -1.4628566  -0.9352094   0.3305149
   17   0.0173087  -0.0653044   0.0744896  -0.9352094   3.9626241  -2.7857538
   18  -0.0360448   0.0050274  -0.0034042   0.3305149  -2.7857538   1.2172972
   19   0.0041458  -0.0067233   0.0068633   0.0232373   0.0292454  -0.0467649
   20   0.0042502  -0.0017788  -0.0063607   0.1322054   0.0419326   0.0650799
   21  -0.0040420  -0.0090774  -0.0086188  -0.0615643   0.0286153  -0.1094856
   22  -0.0003620   0.0061427  -0.0030650   0.0189484   0.0502629   0.0399106
   23  -0.0006605  -0.0018964   0.0011793   0.0697984  -0.1479958  -0.0289651
   24   0.0016970  -0.0050273  -0.0040241  -0.0123358   0.0220438   0.0294770
   25   0.0090746   0.0071126   0.0069187   0.0966692   0.0402629  -0.0182018
   26  -0.0007577   0.0309694  -0.0317351   0.3188394  -0.0549577  -0.2415083
   27   0.0045234   0.0113145  -0.0253224   0.2061559  -0.0942901  -0.1949403
           19          20          21          22          23          24
    1  -0.0276496  -0.0408279   0.0252057  -0.0316627   0.0166523   0.0196670
    2   0.0165069  -0.0177552   0.0067652  -0.0119569   0.0027643   0.0176195
    3  -0.0182498   0.0546234   0.0280102   0.0068290  -0.0212225   0.0171381
    4  -0.0449907  -0.0173645  -0.0488219  -0.1051413   0.0046874   0.0321859
    5  -0.0437621  -0.0728451  -0.0574316   0.0794396  -0.0588866  -0.1000745
    6  -0.0593711  -0.0665435  -0.1439000  -0.0008965  -0.0687595  -0.1309391
    7  -0.0718421  -0.0678256  -0.0444820   0.0069999   0.0217831   0.0142160
    8  -0.0027741   0.0259679   0.0343989   0.0091378  -0.0164418  -0.0131534
    9  -0.0244936  -0.0006846   0.0065311  -0.0104860   0.0086861   0.0127686
   10   0.0004785  -0.0094124  -0.0100094   0.0065716   0.0059786  -0.0006337
   11   0.0061988  -0.0018236   0.0066743  -0.0116614   0.0042654   0.0014101
   12   0.0036567   0.0007592   0.0047553   0.0043313  -0.0035419  -0.0076932
   13   0.0041458   0.0042502  -0.0040420  -0.0003620  -0.0006605   0.0016970
   14  -0.0067233  -0.0017788  -0.0090774   0.0061427  -0.0018964  -0.0050273
   15   0.0068633  -0.0063607  -0.0086188  -0.0030650   0.0011793  -0.0040241
   16   0.0232373   0.1322054  -0.0615643   0.0189484   0.0697984  -0.0123358
   17   0.0292454   0.0419326   0.0286153   0.0502629  -0.1479958   0.0220438
   18  -0.0467649   0.0650799  -0.1094856   0.0399106  -0.0289651   0.0294770
   19   0.1017822  -0.0034083   0.1292481   0.0216434   0.0086444   0.0116696
   20  -0.0034083   0.0294261  -0.0055036   0.0150097   0.0061474  -0.0292140
   21   0.1292481  -0.0055036   0.2612119   0.0193804  -0.0022849  -0.0313891
   22   0.0216434   0.0150097   0.0193804   0.0727950  -0.1355841  -0.0621445
   23   0.0086444   0.0061474  -0.0022849  -0.1355841   0.1940363   0.1037272
   24   0.0116696  -0.0292140  -0.0313891  -0.0621445   0.1037272   0.1217808
   25  -0.0068048  -0.0126267  -0.0049145   0.0102078   0.0087005  -0.0043215
   26  -0.0039277  -0.0092714  -0.0021563  -0.0007903   0.0180073   0.0026686
   27  -0.0025584  -0.0121562  -0.0071150   0.0061407   0.0111812  -0.0071189
           25          26          27
    1  -0.1021013  -0.1188968  -0.0818268
    2  -0.1308744  -0.1744529  -0.0733055
    3   0.0237936   0.1430810   0.1174127
    4   0.0248854  -0.0694598  -0.0131442
    5   0.0389597  -0.0896067   0.0489925
    6   0.0400118  -0.0036712   0.0625592
    7  -0.0471238  -0.1098593  -0.0896886
    8   0.0426265   0.0475613   0.0425430
    9  -0.0366762   0.0273441   0.0275691
   10   0.0089197  -0.0248557  -0.0257203
   11  -0.0038690  -0.0255349  -0.0152147
   12  -0.0027283   0.0250419   0.0069378
   13   0.0090746  -0.0007577   0.0045234
   14   0.0071126   0.0309694   0.0113145
   15   0.0069187  -0.0317351  -0.0253224
   16   0.0966692   0.3188394   0.2061559
   17   0.0402629  -0.0549577  -0.0942901
   18  -0.0182018  -0.2415083  -0.1949403
   19  -0.0068048  -0.0039277  -0.0025584
   20  -0.0126267  -0.0092714  -0.0121562
   21  -0.0049145  -0.0021563  -0.0071150
   22   0.0102078  -0.0007903   0.0061407
   23   0.0087005   0.0180073   0.0111812
   24  -0.0043215   0.0026686  -0.0071189
   25   0.0062734   0.0097080  -0.0038818
   26   0.0097080   0.2572856   0.0809352
   27  -0.0038818   0.0809352   0.0200178
 **********************************************************************
 **                                                                  **
 **                       VIBRATIONAL ANALYSIS                       **
 **                       --------------------                       **
 **                                                                  **
 **        VIBRATIONAL FREQUENCIES (CM**-1) AND NORMAL MODES         **
 **     FORCE CONSTANTS (mDYN/ANGSTROM) AND REDUCED MASSES (AMU)     **
 **                  INFRARED INTENSITIES (KM/MOL)                   **
 **                                                                  **
 **********************************************************************
 

 Mode:                 1                      2                      3
 Frequency:     -7480.80               -6589.42               -2204.03
 Force Cnst:     35.5232                29.0630                 5.8687
 Red. Mass:       1.0774                 1.1360                 2.0505
 IR Active:          YES                    YES                    YES
 IR Intens:     2507.332                557.316               6276.331
 Raman Active:       YES                    YES                    YES
               X      Y      Z        X      Y      Z        X      Y      Z
 C         -0.000 -0.070  0.007    0.076  0.008 -0.064   -0.104 -0.058  0.084
 C         -0.021 -0.016 -0.006   -0.011  0.003 -0.015   -0.104  0.067  0.021
 H         -0.026  0.992  0.009   -0.294  0.002  0.945   -0.164 -0.183  0.214
 H         -0.012 -0.008  0.014   -0.012  0.033  0.035   -0.200 -0.507  0.187
 H         -0.009  0.040 -0.019   -0.040 -0.009  0.012    0.080  0.229 -0.128
 O          0.020  0.006  0.001   -0.030 -0.009  0.002    0.191  0.046 -0.061
 H          0.002 -0.056 -0.019    0.026 -0.006 -0.034    0.008 -0.184 -0.032
 H         -0.017  0.009 -0.020   -0.006 -0.004 -0.025   -0.037  0.067 -0.041
 H         -0.009 -0.040  0.006    0.027 -0.015 -0.029   -0.249 -0.260 -0.484
 TransDip   1.023  1.175  0.381    0.618  0.267  0.344    1.054  2.167  0.794

 Mode:                 4                      5                      6
 Frequency:     -1173.32                -631.82                -499.99
 Force Cnst:      0.9528                 0.2567                 0.1806
 Red. Mass:       1.1746                 1.0913                 1.2262
 IR Active:          YES                    YES                    YES
 IR Intens:      892.708                128.943                103.024
 Raman Active:       YES                    YES                    YES
               X      Y      Z        X      Y      Z        X      Y      Z
 C         -0.051  0.061  0.042    0.007  0.036  0.037    0.031  0.023  0.010
 C          0.056 -0.038 -0.020    0.030 -0.005  0.001   -0.022  0.008  0.053
 H         -0.050  0.051  0.048    0.029  0.049 -0.003    0.040  0.023 -0.019
 H         -0.197  0.261 -0.179   -0.544 -0.338 -0.158    0.033 -0.242  0.206
 H          0.120 -0.183  0.036    0.234 -0.004 -0.209   -0.166  0.427 -0.073
 O         -0.012 -0.028  0.025   -0.051 -0.007  0.015   -0.043 -0.051 -0.081
 H         -0.104 -0.417 -0.043    0.178  0.050 -0.074   -0.140  0.091  0.057
 H          0.527  0.364 -0.174   -0.130 -0.047 -0.052    0.581  0.348  0.114
 H         -0.182  0.098 -0.346    0.597  0.040 -0.193    0.233 -0.210  0.251
 TransDip   0.167  0.668  0.665    0.070  0.168  0.315   -0.056  0.262  0.184

 Mode:                 7                      8                      9
 Frequency:        95.94                 750.84                 956.77
 Force Cnst:      0.0066                 0.4581                 0.6944
 Red. Mass:       1.2212                 1.3790                 1.2875
 IR Active:          YES                    YES                    YES
 IR Intens:      373.476                207.952                274.653
 Raman Active:       YES                    YES                    YES
               X      Y      Z        X      Y      Z        X      Y      Z
 C         -0.004 -0.071  0.013    0.002  0.080 -0.067    0.002 -0.042  0.102
 C          0.072  0.034  0.057   -0.005  0.035  0.128   -0.078  0.003 -0.045
 H         -0.001 -0.054  0.008   -0.001  0.065 -0.068    0.003 -0.080  0.108
 H          0.085  0.292 -0.241   -0.089 -0.230  0.085   -0.213  0.374 -0.474
 H         -0.009  0.707 -0.366    0.019 -0.241  0.055    0.247 -0.091 -0.091
 O         -0.052 -0.026  0.007   -0.004 -0.050 -0.034    0.038  0.026 -0.041
 H          0.275 -0.102 -0.076    0.589 -0.244 -0.297    0.148  0.141 -0.143
 H         -0.147 -0.035 -0.098   -0.111  0.126 -0.303    0.121  0.041  0.022
 H         -0.199  0.031 -0.171   -0.308 -0.058  0.342   -0.001 -0.317  0.539
 TransDip   0.316  0.329  0.418   -0.162 -0.083  0.425   -0.113  0.363  0.370

 Mode:                10                     11                     12
 Frequency:      1030.75                1143.71                1350.29
 Force Cnst:      0.9046                 1.0117                 1.2578
 Red. Mass:       1.4450                 1.3128                 1.1708
 IR Active:          YES                    YES                    YES
 IR Intens:      139.693                 89.903                 85.171
 Raman Active:       YES                    YES                    YES
               X      Y      Z        X      Y      Z        X      Y      Z
 C         -0.028  0.050  0.036   -0.022 -0.093 -0.016    0.064  0.032  0.044
 C          0.151  0.061 -0.020   -0.023  0.098  0.071   -0.061 -0.019  0.024
 H         -0.037  0.064  0.084   -0.033 -0.081 -0.011    0.073  0.025  0.007
 H         -0.247 -0.122  0.020    0.279  0.232 -0.018    0.323 -0.036  0.152
 H          0.147  0.047  0.007   -0.074 -0.208  0.025    0.651 -0.071 -0.333
 O         -0.025 -0.025 -0.070   -0.002  0.031 -0.036   -0.033 -0.025 -0.023
 H         -0.448 -0.409  0.273   -0.100 -0.560  0.094   -0.281  0.115  0.139
 H         -0.251 -0.297  0.186   -0.116  0.127 -0.200   -0.168  0.149 -0.363
 H         -0.230 -0.206  0.356    0.615 -0.053  0.032   -0.118  0.053 -0.046
 TransDip   0.351 -0.028 -0.138    0.090  0.110  0.268   -0.204  0.030  0.212

 Mode:                13                     14                     15
 Frequency:      1467.52                1635.59                2732.90
 Force Cnst:      1.3566                 3.1170                 4.8609
 Red. Mass:       1.0692                 1.9776                 1.1046
 IR Active:          YES                    YES                    YES
 IR Intens:       62.344                364.930               1187.878
 Raman Active:       YES                    YES                    YES
               X      Y      Z        X      Y      Z        X      Y      Z
 C         -0.039  0.008 -0.004    0.235 -0.005  0.050    0.029 -0.057 -0.060
 C         -0.017  0.009 -0.037   -0.154 -0.009  0.012   -0.028 -0.000  0.009
 H         -0.039  0.013  0.006    0.267 -0.041 -0.109    0.028 -0.055 -0.086
 H          0.279 -0.001  0.256   -0.171 -0.201 -0.327   -0.441  0.357  0.462
 H          0.376 -0.080 -0.228   -0.181  0.077  0.106    0.397  0.264  0.459
 O         -0.035  0.021  0.005   -0.038  0.043 -0.037    0.000  0.003 -0.012
 H          0.305 -0.259 -0.196   -0.053 -0.547  0.061    0.011 -0.022 -0.030
 H          0.243 -0.235  0.578    0.026 -0.169  0.236   -0.028  0.030 -0.007
 H          0.047  0.022 -0.020   -0.243  0.374 -0.113    0.020  0.061 -0.007
 TransDip   0.143 -0.163 -0.129   -0.337 -0.334  0.386    0.004 -0.660 -0.885

 Mode:                16                     17                     18
 Frequency:      2879.58                2945.05                3107.51
 Force Cnst:      5.3530                 5.3530                 5.9276
 Red. Mass:       1.0957                 1.0475                 1.0418
 IR Active:          YES                    YES                    YES
 IR Intens:     1619.702                623.776                271.328
 Raman Active:       YES                    YES                    YES
               X      Y      Z        X      Y      Z        X      Y      Z
 C         -0.076 -0.005 -0.004    0.013  0.015 -0.012   -0.024 -0.009  0.018
 C         -0.005  0.016 -0.015   -0.003 -0.025 -0.044   -0.018  0.008 -0.018
 H         -0.098  0.021  0.086    0.018  0.012 -0.021   -0.014  0.000  0.035
 H          0.271 -0.298 -0.399    0.041  0.009 -0.066   -0.156  0.117  0.219
 H          0.323  0.245  0.499    0.042 -0.030  0.100   -0.126 -0.082 -0.256
 O          0.012 -0.030 -0.012   -0.019 -0.002 -0.006    0.015 -0.001 -0.028
 H          0.097  0.015  0.146    0.377 -0.038  0.596    0.297  0.030  0.598
 H          0.093 -0.042 -0.055   -0.264  0.477  0.282    0.280 -0.339 -0.276
 H          0.082  0.411  0.139   -0.041 -0.286 -0.133   -0.008  0.303  0.117
 TransDip  -1.008 -0.759 -0.264    0.135  0.100 -0.782   -0.499 -0.169  0.024

 Mode:                19                     20                     21
 Frequency:      3190.11                4735.71               14110.84
 Force Cnst:      6.7105               150.6322               126.4296
 Red. Mass:       1.1192                11.3998                 1.0777
 IR Active:          YES                    YES                    YES
 IR Intens:     1354.539                245.052               1990.704
 Raman Active:       YES                    YES                    YES
               X      Y      Z        X      Y      Z        X      Y      Z
 C         -0.030 -0.021  0.030    0.114  0.014  0.002   -0.073 -0.003 -0.031
 C          0.013 -0.017 -0.016   -0.176  0.608 -0.352   -0.006  0.005  0.001
 H         -0.033 -0.023  0.076    0.130  0.075 -0.254    0.938  0.019  0.336
 H         -0.120  0.072  0.133   -0.096  0.028  0.097   -0.001 -0.001  0.001
 H         -0.114 -0.040 -0.262   -0.095 -0.028 -0.083    0.001  0.001  0.005
 O          0.050 -0.041 -0.033    0.050 -0.463  0.286    0.001 -0.001  0.002
 H         -0.067 -0.007 -0.127   -0.033 -0.013 -0.055   -0.008 -0.009 -0.008
 H         -0.279  0.457  0.290    0.058  0.055 -0.033   -0.001  0.003 -0.000
 H          0.026  0.643  0.240   -0.029 -0.162 -0.040   -0.006 -0.012 -0.010
 TransDip  -0.251 -1.146 -0.120   -0.365 -0.134 -0.316   -0.961 -0.921 -0.520

 STANDARD THERMODYNAMIC QUANTITIES AT   298.15 K  AND     1.00 ATM

   This Molecule has  6 Imaginary Frequencies
   Zero point vibrational energy:       60.232 kcal/mol

   Atom    1 Element C  Has Mass   12.00000
   Atom    2 Element C  Has Mass   12.00000
   Atom    3 Element H  Has Mass    1.00783
   Atom    4 Element H  Has Mass    1.00783
   Atom    5 Element H  Has Mass    1.00783
   Atom    6 Element O  Has Mass   15.99491
   Atom    7 Element H  Has Mass    1.00783
   Atom    8 Element H  Has Mass    1.00783
   Atom    9 Element H  Has Mass    1.00783
   Molecular Mass:    46.041890 amu
   Principal axes and moments of inertia in amu*Bohr^2:
                             1           2           3
    Eigenvalues --       41.87478    81.73446    94.39552
          X               0.99837    -0.05427     0.01738
          Y               0.04287     0.91621     0.39840
          Z              -0.03754    -0.39700     0.91705
   Rotational Symmetry Number is   1
   The Molecule is an Asymmetric Top
   Translational Enthalpy:        0.889 kcal/mol
   Rotational Enthalpy:           0.889 kcal/mol
   Vibrational Enthalpy:         60.829 kcal/mol
   gas constant (RT):             0.592 kcal/mol
   Translational Entropy:        37.406  cal/mol.K
   Rotational Entropy:           20.407  cal/mol.K
   Vibrational Entropy:           4.075  cal/mol.K

   Total Enthalpy:               63.199 kcal/mol
   Total Entropy:                61.888  cal/mol.K
Archival summary:
1\1\node018\FREQ\ProcedureUnspecified\6-31G*\126\guest94\MonMar918:26:212020MonMar918:26:212020\0\\#,FREQ,ProcedureUnspecified,6-31G*,\\0,1\O\C,1,0.91044\H,2,0.83529,1,67.2714\C,3,0.573284,2,142.319,1,-88.2473,0\H,1,0.969,2,121.036,3,-84.0046,0\H,2,1.08549,1,98.0148,3,-136.82,0\H,4,1.08549,3,143.16,2,12.4826,0\H,4,1.08549,3,98.7968,2,-172.465,0\H,2,1.08549,1,104.644,3,101.498,0\\\@

 Total job time:  13.19s(wall), 31.17s(cpu) 
 Mon Mar  9 18:26:21 2020

        *************************************************************
        *                                                           *
        *  Thank you very much for using Q-Chem.  Have a nice day.  *
        *                                                           *
        *************************************************************


