[Molden Format]
[Geometries] (XYZ)
9

C        0.513540      -0.068072       0.881335
C       -0.002567       0.082831      -0.539163
H        1.601084       0.060444       0.914576
H        0.255581       1.080342      -0.930715
H        0.468028      -0.666314      -1.195887
O       -1.417810      -0.098069      -0.514337
H       -1.735098      -0.010257      -1.425541
H        0.052176       0.678754       1.536012
H        0.265064      -1.059660       1.273720
9

C        0.490272      -0.093825       0.888256
C       -0.142649       0.130433      -0.468405
H        1.581441      -0.004962       0.849670
H        0.146601       1.096597      -0.902364
H        0.055312      -0.715098      -1.433169
O       -1.524272      -0.060097      -0.495940
H       -1.298720      -0.252046      -1.621943
H        0.109573       0.663260       1.578323
H        0.231960      -1.067498       1.266861
9

C        0.453269      -0.101076       0.862578
C       -0.286624       0.219065      -0.407897
H        1.540058      -0.058156       0.740155
H        0.046932       1.111850      -0.958550
H       -0.173579      -0.898182      -1.987002
O       -1.547019      -0.026199      -0.394720
H       -1.081938      -0.452262      -1.983662
H        0.156367       0.662558       1.592407
H        0.156853      -1.081823       1.243905
9

C        0.473302      -0.100802       0.862631
C       -0.379324       0.325715      -0.317045
H        1.530221      -0.152051       0.606851
H       -0.010512       1.159619      -0.944010
H       -0.287761      -1.089601      -2.567384
O       -1.566762      -0.005138      -0.379976
H       -0.952621      -0.748851      -2.521849
H        0.348099       0.655591       1.647766
H        0.127476      -1.060294       1.252686
9

C        0.255614      -0.172488       0.949423
C       -0.470690       0.390291      -0.247413
H        1.340425      -0.142952       0.793840
H       -0.027687       1.317606      -0.677415
H        0.605830      -0.826787      -3.256263
O       -1.464558      -0.097294      -0.736995
H       -0.094247      -0.593652      -3.335418
H        0.042248       0.453985       1.828014
H       -0.078005      -1.193819       1.151373
[GEOCONV]
energy
0.0
51.455207294551656
80.25525426617241
23.763947870058473
17.84667534507753
max-force
0.0
0.008793865513973056
0.008625489820550098
0.00908698403309679
0.00044339789514616764
max-step
1000.0
1000.0
1000.0
1000.0
1000.0
