[Molden Format]
[Geometries] (XYZ)
9

C        0.513540      -0.068072       0.881335
C       -0.002567       0.082831      -0.539163
H        1.601084       0.060444       0.914576
H        0.255581       1.080342      -0.930715
H        0.468028      -0.666314      -1.195887
O       -1.417810      -0.098069      -0.514337
H       -1.735098      -0.010257      -1.425541
H        0.052176       0.678754       1.536012
H        0.265064      -1.059660       1.273720
9

C        0.324576      -0.188163       0.897452
C       -0.044199       0.178184      -0.529741
H        1.391609      -0.038013       1.089445
H        0.224070       1.219929      -0.747416
H        0.364224      -0.458453      -1.404613
O       -1.414163      -0.063718      -0.866050
H       -1.052954      -0.062854      -1.857461
H       -0.238253       0.441309       1.588759
H        0.082922      -1.212473       1.092250
9

C        0.286573      -0.213999       0.836740
C       -0.131626       0.218837      -0.530417
H        1.359335      -0.052063       1.023687
H        0.192910       1.230093      -0.811601
H        0.367921      -0.538733      -1.894772
O       -1.386277      -0.068023      -0.812802
H       -0.715158      -0.110554      -2.091012
H       -0.282302       0.409107       1.539214
H        0.034041      -1.265255       1.007116
9

C        0.232978      -0.213596       0.828586
C       -0.242751       0.268488      -0.535595
H        1.289550      -0.045528       0.994582
H        0.106861       1.249193      -0.893879
H        0.445637      -0.567596      -2.338155
O       -1.354129      -0.113615      -0.907864
H       -0.243136      -0.297613      -2.439561
H       -0.341305       0.355091       1.568015
H       -0.008401      -1.269269       0.960598
9

C        0.255614      -0.172488       0.949423
C       -0.470690       0.390291      -0.247413
H        1.340425      -0.142952       0.793840
H       -0.027687       1.317606      -0.677415
H        0.605830      -0.826787      -3.256263
O       -1.464558      -0.097294      -0.736995
H       -0.094247      -0.593652      -3.335418
H        0.042248       0.453985       1.828014
H       -0.078005      -1.193819       1.151373
[GEOCONV]
energy
0.0
25.66995576568297
109.33477034738462
44.10212315010722
17.84667534507753
max-force
0.0
0.008793865513973056
0.008625489820550098
0.00908698403309679
0.00044339789514616764
max-step
1000.0
1000.0
1000.0
1000.0
1000.0
