[Molden Format]
[Geometries] (XYZ)
9

C        0.513540      -0.068072       0.881335
C       -0.002567       0.082831      -0.539163
H        1.601084       0.060444       0.914576
H        0.255581       1.080342      -0.930715
H        0.468028      -0.666314      -1.195887
O       -1.417810      -0.098069      -0.514337
H       -1.735098      -0.010257      -1.425541
H        0.052176       0.678754       1.536012
H        0.265064      -1.059660       1.273720
9

C        0.509676      -0.232075       0.777156
C       -0.017623       0.096106      -0.610095
H        1.604509      -0.224456       0.790211
H        0.454593       0.982516      -1.056391
H        0.325762      -0.724281      -1.307509
O       -1.464241       0.070555      -0.678129
H       -1.390107      -0.578670      -1.392860
H        0.152022       0.525465       1.487274
H        0.138229      -1.204581       1.108315
9

C        0.494904      -0.129628       0.823982
C       -0.250586       0.222414      -0.441845
H        1.581192      -0.129114       0.685338
H        0.216207       1.047812      -1.014020
H        0.257573      -0.833559      -1.371803
O       -1.570748       0.095748      -0.476310
H       -0.741589      -0.688238      -1.238437
H        0.227673       0.650766       1.548868
H        0.151879      -1.089784       1.214257
9

C        0.505242      -0.247293       0.796223
C       -0.349156       0.359448      -0.297704
H        1.563630      -0.300946       0.516632
H        0.177100       1.087823      -0.954997
H        0.234736      -1.339819      -1.889895
O       -1.553622       0.259954      -0.336298
H       -0.475456      -1.139500      -1.827218
H        0.402522       0.411125       1.667115
H        0.128653      -1.237155       1.076275
9

C        0.255614      -0.172488       0.949423
C       -0.470690       0.390291      -0.247413
H        1.340425      -0.142952       0.793840
H       -0.027687       1.317606      -0.677415
H        0.605830      -0.826787      -3.256263
O       -1.464558      -0.097294      -0.736995
H       -0.094247      -0.593652      -3.335418
H        0.042248       0.453985       1.828014
H       -0.078005      -1.193819       1.151373
[GEOCONV]
energy
0.0
11.328146188490791
92.04999374023464
24.87878610829648
17.84667534507753
max-force
0.0
0.0021590207589757718
0.0003283084909133061
0.0021784003382368366
0.00044339789514616764
max-step
1000.0
1000.0
1000.0
1000.0
1000.0
