                  Welcome to Q-Chem
     A Quantum Leap Into The Future Of Chemistry


 Q-Chem 5.2 (devel), Q-Chem, Inc., Pleasanton, CA (2019)

 Yihan Shao,  Zhengting Gan,  E. Epifanovsky,  A. T. B. Gilbert,  M. Wormit,  
 J. Kussmann,  A. W. Lange,  A. Behn,  Jia Deng,  Xintian Feng,  D. Ghosh,  
 M. Goldey,  P. R. Horn,  L. D. Jacobson,  I. Kaliman,  T. Kus,  A. Landau,  
 Jie Liu,  E. I. Proynov,  R. M. Richard,  R. P. Steele,  E. J. Sundstrom,  
 H. L. Woodcock III,  P. M. Zimmerman,  D. Zuev,  B. Albrecht,  E. Alguire,  
 S. A. Baeppler,  D. Barton,  Z. Benda,  Y. A. Bernard,  E. J. Berquist,  
 K. B. Bravaya,  H. Burton,  D. Casanova,  Chun-Min Chang,  Yunqing Chen,  
 A. Chien,  K. D. Closser,  M. P. Coons,  S. Coriani,  S. Dasgupta,  
 A. L. Dempwolff,  M. Diedenhofen,  Hainam Do,  R. G. Edgar,  Po-Tung Fang,  
 S. Faraji,  S. Fatehi,  Qingguo Feng,  K. D. Fenk,  J. Fosso-Tande,  
 J. Gayvert,  Qinghui Ge,  A. Ghysels,  G. Gidofalvi,  J. Gomes,  
 J. Gonthier,  A. Gunina,  D. Hait,  M. W. D. Hanson-Heine,  
 P. H. P. Harbach,  A. W. Hauser,  M. F. Herbst,  J. E. Herr,  
 E. G. Hohenstein,  Z. C. Holden,  Kerwin Hui,  B. C. Huynh,  T.-C. Jagau,  
 Hyunjun Ji,  B. Kaduk,  K. Khistyaev,  Jaehoon Kim,  P. Klunzinger,  K. Koh,  
 D. Kosenkov,  L. Koulias,  T. Kowalczyk,  C. M. Krauter,  A. Kunitsa,  
 Ka Un Lao,  A. Laurent,  K. V. Lawler,  Joonho Lee,  D. Lefrancois,  
 S. Lehtola,  D. S. Levine,  Yi-Pei Li,  You-Sheng Lin,  Fenglai Liu,  
 E. Livshits,  A. Luenser,  P. Manohar,  E. Mansoor,  S. F. Manzer,  
 Shan-Ping Mao,  Yuezhi Mao,  N. Mardirossian,  A. V. Marenich,  
 T. Markovich,  L. A. Martinez-Martinez,  S. A. Maurer,  N. J. Mayhall,  
 S. C. McKenzie,  J.-M. Mewes,  P. Morgante,  A. F. Morrison,  
 J. W. Mullinax,  K. Nanda,  T. S. Nguyen-Beck,  R. Olivares-Amaya,  
 J. A. Parkhill,  Zheng Pei,  T. M. Perrine,  F. Plasser,  P. Pokhilko,  
 S. Prager,  A. Prociuk,  E. Ramos,  D. R. Rehn,  F. Rob,  M. Scheurer,  
 M. Schneider,  N. Sergueev,  S. M. Sharada,  S. Sharma,  D. W. Small,  
 T. Stauch,  T. Stein,  Yu-Chuan Su,  A. J. W. Thom,  A. Tkatchenko,  
 T. Tsuchimochi,  N. M. Tubman,  L. Vogt,  M. L. Vidal,  O. Vydrov,  
 M. A. Watson,  J. Wenzel,  M. de Wergifosse,  T. A. Wesolowski,  A. White,  
 J. Witte,  A. Yamada,  Jun Yang,  K. Yao,  S. Yeganeh,  S. R. Yost,  
 Zhi-Qiang You,  A. Zech,  Igor Ying Zhang,  Xing Zhang,  Yan Zhao,  
 Ying Zhu,  B. R. Brooks,  G. K. L. Chan,  C. J. Cramer,  M. S. Gordon,  
 W. J. Hehre,  A. Klamt,  M. W. Schmidt,  C. D. Sherrill,  D. G. Truhlar,  
 A. Aspuru-Guzik,  R. Baer,  A. T. Bell,  N. A. Besley,  Jeng-Da Chai,  
 A. E. DePrince, III,  R. A. DiStasio Jr.,  A. Dreuw,  B. D. Dunietz,  
 T. R. Furlani,  Chao-Ping Hsu,  Yousung Jung,  Jing Kong,  D. S. Lambrecht,  
 WanZhen Liang,  C. Ochsenfeld,  V. A. Rassolov,  L. V. Slipchenko,  
 J. E. Subotnik,  T. Van Voorhis,  J. M. Herbert,  A. I. Krylov,  
 P. M. W. Gill,  M. Head-Gordon

 Contributors to earlier versions of Q-Chem not listed above: 
 R. D. Adamson,  B. Austin,  J. Baker,  G. J. O. Beran,  K. Brandhorst,  
 S. T. Brown,  E. F. C. Byrd,  A. K. Chakraborty,  C.-L. Cheng,  
 Siu Hung Chien,  D. M. Chipman,  D. L. Crittenden,  H. Dachsel,  
 R. J. Doerksen,  A. D. Dutoi,  L. Fusti-Molnar,  W. A. Goddard III,  
 A. Golubeva-Zadorozhnaya,  S. R. Gwaltney,  G. Hawkins,  A. Heyden,  
 S. Hirata,  G. Kedziora,  F. J. Keil,  C. Kelley,  Jihan Kim,  R. A. King,  
 R. Z. Khaliullin,  P. P. Korambath,  W. Kurlancheek,  A. M. Lee,  M. S. Lee,  
 S. V. Levchenko,  Ching Yeh Lin,  D. Liotard,  R. C. Lochan,  I. Lotan,  
 P. E. Maslen,  N. Nair,  D. P. O'Neill,  D. Neuhauser,  E. Neuscamman,  
 C. M. Oana,  R. Olson,  B. Peters,  R. Peverati,  P. A. Pieniazek,  
 Y. M. Rhee,  J. Ritchie,  M. A. Rohrdanz,  E. Rosta,  N. J. Russ,  
 H. F. Schaefer III,  N. E. Schultz,  N. Shenvi,  A. C. Simmonett,  A. Sodt,  
 D. Stuck,  K. S. Thanthiriwatte,  V. Vanovschi,  Tao Wang,  A. Warshel,  
 C. F. Williams,  Q. Wu,  X. Xu,  W. Zhang

 Please cite Q-Chem as follows:
 Y. Shao et al., Mol. Phys. 113, 184-215 (2015)
 DOI: 10.1080/00268976.2014.952696

 Q-Chem 5.2.1 for Intel X86 EM64T Linux

 Parts of Q-Chem use Armadillo 8.300.2 (Tropical Shenanigans).
 http://arma.sourceforge.net/

 Q-Chem begins on Sun Mar 22 17:01:54 2020  

Host: node018
0

     Scratch files written to /tmp/ypli/106202.h81/qchem9867//
NAlpha2: 26
NElect   26
Mult     1

Checking the input file for inconsistencies... 	...done.

--------------------------------------------------------------
User input:
--------------------------------------------------------------
$rem
jobtype = freq
exchange = b3lyp
basis = 6-31g*
$end

$molecule
0 1
C      0.00000002   -0.00000000    0.00000000
C     -3.51964012   -0.48414022   -0.35223652
H      1.04503251    0.17131088   -0.26731836
H     -3.80354670    0.45263350   -0.85779949
H     -3.68827244   -1.40611563   -0.93125840
O     -3.04810793   -0.49955968    0.77787064
H     -0.61871504    0.05095897   -0.89860691
H     -0.32442023    0.76461809    0.70923211
H     -0.10189726   -0.98688794    0.45669316
$end
--------------------------------------------------------------
 ----------------------------------------------------------------
             Standard Nuclear Orientation (Angstroms)
    I     Atom           X                Y                Z
 ----------------------------------------------------------------
    1      C       2.0607489491     0.0835958829    -0.0051805398
    2      C      -1.4909156466     0.4469084856    -0.0017766516
    3      H       3.1203016250     0.3485895808    -0.0102693045
    4      H      -1.6339286158     1.0324200020     0.9204301690
    5      H      -1.7905506427     0.9501016602    -0.9349204517
    6      O      -1.0296895318    -0.6874914258     0.0096194470
    7      H       1.4584710526     0.9924463792     0.0592526167
    8      H       1.8493173025    -0.5550288586     0.8552580730
    9      H       1.8149057174    -0.4516235681    -0.9249635299
 ----------------------------------------------------------------
 Molecular Point Group                 C1    NOp =  1
 Largest Abelian Subgroup              C1    NOp =  1
 Nuclear Repulsion Energy =          69.05665977 hartrees
 There are       13 alpha and       13 beta electrons
 Requested basis set is 6-31G(d)
 There are 24 shells and 57 basis functions

 Total QAlloc Memory Limit   2000 MB
 Mega-Array Size       188 MB
 MEM_STATIC part       192 MB

                       Distance Matrix (Angstroms)
             C (  1)   C (  2)   H (  3)   H (  4)   H (  5)   O (  6)
   C (  2)  3.570200
   H (  3)  1.092199  4.612273
   H (  4)  3.925260  1.101700  4.892497
   H (  5)  4.055583  1.101700  5.033216  1.863768
   O (  6)  3.185217  1.224632  4.277416  2.037836  2.037836
   H (  7)  1.092199  3.000036  1.783554  3.210321  3.397987  3.002598
   H (  8)  1.092199  3.591036  1.783554  3.828478  4.326522  3.003553
   H (  9)  1.092199  3.547970  1.783554  4.183578  3.868365  3.003465
             H (  7)   H (  8)
   H (  8)  1.783554
   H (  9)  1.783554  1.783554
 
 A cutoff of  1.0D-11 yielded    285 shell pairs
 There are      1693 function pairs
 Smallest overlap matrix eigenvalue = 9.19E-03
 Guess from superposition of atomic densities
 Warning:  Energy on first SCF cycle will be non-variational
 SAD guess density has 26.000000 electrons

 -----------------------------------------------------------------------
  General SCF calculation program by
  Eric Jon Sundstrom, Paul Horn, Yuezhi Mao, Dmitri Zuev, Alec White,
  David Stuck, Shaama M.S., Shane Yost, Joonho Lee, David Small,
  Daniel Levine, Susi Lehtola, Hugh Burton, Evgeny Epifanovsky,
  Bang C. Huynh
 -----------------------------------------------------------------------
 Exchange:     0.2000 Hartree-Fock + 0.0800 Slater + 0.7200 B88
 Correlation:  0.1900 VWN1RPA + 0.8100 LYP
 Using SG-1 standard quadrature grid
 using 2 threads for integral computing
 -------------------------------------------------------
 OpenMP Integral computing Module                
 Release: version 2.0, May 2017, Q-Chem Inc. Pleasanton 
 -------------------------------------------------------
 A restricted SCF calculation will be
 performed using DIIS
 SCF converges when DIIS error is below 1.0e-08
 ---------------------------------------
  Cycle       Energy         DIIS error
 ---------------------------------------
    1    -155.1037546204      9.49e-02  
    2    -154.9050668598      1.72e-02  
    3    -154.6875872674      3.10e-02  
    4    -155.0043121115      6.09e-03  
    5    -155.0176975857      7.61e-04  
    6    -155.0178717136      2.07e-04  
    7    -155.0178873684      5.30e-05  
    8    -155.0178883114      1.07e-05  
    9    -155.0178883491      4.71e-07  
   10    -155.0178883492      1.49e-07  
   11    -155.0178883492      2.90e-08  
   12    -155.0178883492      1.47e-09  Convergence criterion met
 ---------------------------------------
 SCF time:   CPU 4.27s  wall 2.00s 
 SCF   energy in the final basis set =     -155.0178883492
 Total energy in the final basis set =     -155.0178883492
 
 --------------------------------------------------------------
 
                    Orbital Energies (a.u.)
 --------------------------------------------------------------
 
 Alpha MOs
 -- Occupied --
-19.1702 -10.2897 -10.1601  -1.0509  -0.6844  -0.6424  -0.4950  -0.4474
 -0.4005  -0.3834  -0.3820  -0.3758  -0.2694
 -- Virtual --
 -0.0483   0.1010   0.1229   0.1780   0.1821   0.1826   0.1877   0.2236
  0.4755   0.5326   0.5373   0.5775   0.6219   0.6332   0.7184   0.8178
  0.8508   0.8812   0.8967   0.9027   0.9348   0.9665   1.0427   1.0682
  1.1525   1.3861   1.5036   1.5118   1.6626   1.6635   1.6972   1.8480
  1.9254   2.1253   2.2474   2.2530   2.2563   2.2814   2.5293   2.6438
  2.8987   3.6923   4.0694   4.1934
 --------------------------------------------------------------
 
          Ground-State Mulliken Net Atomic Charges

     Atom                 Charge (a.u.)
  ----------------------------------------
      1 C                    -0.620773
      2 C                     0.079685
      3 H                     0.146907
      4 H                     0.127982
      5 H                     0.128064
      6 O                    -0.329945
      7 H                     0.138951
      8 H                     0.165544
      9 H                     0.163584
  ----------------------------------------
  Sum of atomic charges =     0.000000

 -----------------------------------------------------------------
                    Cartesian Multipole Moments
 -----------------------------------------------------------------
    Charge (ESU x 10^10)
                 0.0000
    Dipole Moment (Debye)
         X      -0.9382      Y       1.9941      Z      -0.0200
       Tot       2.2039
    Quadrupole Moments (Debye-Ang)
        XX     -17.7475     XY      -2.7058     YY     -20.3144
        XZ       0.0256     YZ       0.0029     ZZ     -19.6916
    Octopole Moments (Debye-Ang^2)
       XXX     -10.3496    XXY       2.2408    XYY      -2.1768
       YYY      -1.3743    XXZ      -0.0475    XYZ       0.0148
       YYZ       0.1697    XZZ      -2.4594    YZZ      -0.7420
       ZZZ      -0.0769
    Hexadecapole Moments (Debye-Ang^3)
      XXXX    -349.6817   XXXY      -0.2427   XXYY     -70.2355
      XYYY       0.8095   YYYY     -55.5750   XXXZ       0.1903
      XXYZ      -0.2841   XYYZ       0.0564   YYYZ      -0.0351
      XXZZ     -65.8507   XYZZ      -1.5388   YYZZ     -14.4322
      XZZZ      -0.0688   YZZZ       0.0014   ZZZZ     -32.5583
 -----------------------------------------------------------------
 Calculating MO derivatives via CPSCF
    1     0    30    0.0701408  
    2     0    30    0.0087385  
    3     0    30    0.0005696  
    4    19    11    0.0000196  
    5    30     0    0.0000004  Converged
 Time for AOints: 0.4 s (CPU) 0.2 s (wall)
 ------------------------------------------------------------------------------
                     AOints        : Timing summary (seconds)
 ------------------------------------------------------------------------------
     job step          cpu (% of tot)      sys (% of tot)     wall (% of tot)
 ------------------------------------------------------------------------------
  AOints            0.3664E+00 ( 4.3)   0.5000E-05 (10.4)   0.2073E+00 ( 4.8)
 ------------------------------------------------------------------------------
   Grand Totals     0.8424E+01          0.4800E-04          0.4336E+01
 ------------------------------------------------------------------------------
 Polarizability Matrix (a.u.)
            1           2           3
    1 -23.7020821   4.1767350  -0.6260536
    2   4.1767350 -27.8698040  -0.1882482
    3  -0.6260536  -0.1882482 -25.2042141
 Calculating analytic Hessian of the SCF energy
 
 Direct stationary perturbation theory relativistic correction:
 
 rels  =       0.047397621566
 relv  =      -0.193156337026
 rel2e =       0.067134398226
 E_rel =      -0.078624317234
 
 Hessian of the SCF Energy
            1           2           3           4           5           6
    1   0.5623077   0.0004662   0.0001056  -0.0006047  -0.0019427   0.0000020
    2   0.0004662   0.5618365   0.0004657   0.0005852  -0.0003501   0.0002487
    3   0.0001056   0.0004657   0.5629822   0.0001031  -0.0000094  -0.0003219
    4  -0.0006047   0.0005852   0.0001031   0.2885037  -0.2592501   0.0399594
    5  -0.0019427  -0.0003501  -0.0000094  -0.2592501   0.8228374   0.0133410
    6   0.0000020   0.0002487  -0.0003219   0.0399594   0.0133410   0.6206093
    7  -0.3071516  -0.0646372   0.0012286   0.0004131  -0.0007591   0.0000494
    8  -0.0648341  -0.0650882   0.0002579  -0.0001032   0.0000433  -0.0000624
    9   0.0012781   0.0002854  -0.0487669  -0.0000155  -0.0000062  -0.0001581
   10   0.0000676   0.0000245  -0.0001712  -0.0586682   0.0113623   0.0174524
   11   0.0001997  -0.0000019  -0.0000848   0.0107797  -0.1063688  -0.0927494
   12   0.0000820  -0.0002255   0.0000464   0.0156553  -0.0879652  -0.2505152
   13   0.0000225  -0.0000038   0.0001500  -0.0697821   0.0217686  -0.0509061
   14   0.0001858   0.0000415   0.0001354   0.0222371  -0.0915657   0.0760206
   15  -0.0001007   0.0000787   0.0000277  -0.0491447   0.0712370  -0.2534339
   16  -0.0029448  -0.0009618  -0.0000727  -0.1585323   0.2269792  -0.0065499
   17   0.0009806  -0.0003709  -0.0000561   0.2265477  -0.6247397   0.0034078
   18   0.0000021  -0.0000983  -0.0000425  -0.0064970   0.0034024  -0.1166886
   19  -0.1310961   0.1272457   0.0088509  -0.0007607  -0.0000245  -0.0000585
   20   0.1266028  -0.2384918  -0.0138462  -0.0008570   0.0009119  -0.0001525
   21   0.0089115  -0.0139756  -0.0483748  -0.0000495   0.0001292   0.0007201
   22  -0.0583800  -0.0319632   0.0431099  -0.0002409   0.0009370  -0.0002264
   23  -0.0313340  -0.1427252   0.1281097   0.0000482  -0.0003886   0.0003575
   24   0.0425596   0.1281122  -0.2203892  -0.0001811   0.0004542  -0.0000660
   25  -0.0622207  -0.0307556  -0.0533042  -0.0003279   0.0009293   0.0002778
   26  -0.0303243  -0.1148498  -0.1149722   0.0000125  -0.0003797  -0.0004112
   27  -0.0528402  -0.1148913  -0.2451611   0.0001702  -0.0005830  -0.0001457
            7           8           9          10          11          12
    1  -0.3071516  -0.0648341   0.0012781   0.0000676   0.0001997   0.0000820
    2  -0.0646372  -0.0650882   0.0002854   0.0000245  -0.0000019  -0.0002255
    3   0.0012286   0.0002579  -0.0487669  -0.0001712  -0.0000848   0.0000464
    4   0.0004131  -0.0001032  -0.0000155  -0.0586682   0.0107797   0.0156553
    5  -0.0007591   0.0000433  -0.0000062   0.0113623  -0.1063688  -0.0879652
    6   0.0000494  -0.0000624  -0.0001581   0.0174524  -0.0927494  -0.2505152
    7   0.3323259   0.0715307  -0.0014034   0.0000159   0.0000525  -0.0000092
    8   0.0715307   0.0647906  -0.0003050  -0.0000209   0.0000367   0.0000785
    9  -0.0014034  -0.0003050   0.0467582   0.0000341   0.0000734   0.0000370
   10   0.0000159  -0.0000209   0.0000341   0.0286643  -0.0330091  -0.0226568
   11   0.0000525   0.0000367   0.0000734  -0.0330091   0.1283994   0.1153941
   12  -0.0000092   0.0000785   0.0000370  -0.0226568   0.1153941   0.2517810
   13   0.0000109  -0.0000047  -0.0000297   0.0182153   0.0040680   0.0011239
   14   0.0000695   0.0000301  -0.0000686   0.0018092   0.0120893  -0.0127144
   15  -0.0000285  -0.0000405   0.0000541  -0.0077779   0.0093921  -0.0192462
   16  -0.0008682  -0.0000281   0.0000352   0.0116914   0.0181653   0.0059355
   17   0.0003238   0.0001801   0.0000116   0.0198064  -0.0341379  -0.0147490
   18  -0.0000048   0.0000301   0.0003245   0.0130115  -0.0320693   0.0179413
   19  -0.0155287   0.0280100   0.0018779   0.0000083   0.0000003   0.0000102
   20  -0.0051458   0.0093989   0.0007602  -0.0000387  -0.0000063   0.0001074
   21   0.0000023   0.0000784  -0.0017772   0.0000119  -0.0000961  -0.0001284
   22  -0.0040893  -0.0189551   0.0268901   0.0000365  -0.0000326  -0.0000413
   23  -0.0006152  -0.0048265   0.0045201   0.0000298  -0.0000667  -0.0000302
   24  -0.0000553  -0.0020975   0.0014071   0.0000746  -0.0000426  -0.0000087
   25  -0.0051280  -0.0155947  -0.0286668  -0.0000310  -0.0002238  -0.0000996
   26  -0.0008193  -0.0045650  -0.0052711   0.0000364   0.0000562   0.0001044
   27   0.0002210   0.0020604   0.0021212   0.0000213   0.0001826   0.0000928
           13          14          15          16          17          18
    1   0.0000225   0.0001858  -0.0001007  -0.0029448   0.0009806   0.0000021
    2  -0.0000038   0.0000415   0.0000787  -0.0009618  -0.0003709  -0.0000983
    3   0.0001500   0.0001354   0.0000277  -0.0000727  -0.0000561  -0.0000425
    4  -0.0697821   0.0222371  -0.0491447  -0.1585323   0.2265477  -0.0064970
    5   0.0217686  -0.0915657   0.0712370   0.2269792  -0.6247397   0.0034024
    6  -0.0509061   0.0760206  -0.2534339  -0.0065499   0.0034078  -0.1166886
    7   0.0000109   0.0000695  -0.0000285  -0.0008682   0.0003238  -0.0000048
    8  -0.0000047   0.0000301  -0.0000405  -0.0000281   0.0001801   0.0000301
    9  -0.0000297  -0.0000686   0.0000541   0.0000352   0.0000116   0.0003245
   10   0.0182153   0.0018092  -0.0077779   0.0116914   0.0198064   0.0130115
   11   0.0040680   0.0120893   0.0093921   0.0181653  -0.0341379  -0.0320693
   12   0.0011239  -0.0127144  -0.0192462   0.0059355  -0.0147490   0.0179413
   13   0.0431072  -0.0471368   0.0634021   0.0084221   0.0212805  -0.0136243
   14  -0.0471368   0.1093789  -0.0962677   0.0230897  -0.0299120   0.0329727
   15   0.0634021  -0.0962677   0.2556311  -0.0065007   0.0156549   0.0170261
   16   0.0084221   0.0230897  -0.0065007   0.1416590  -0.2673773   0.0071443
   17   0.0212805  -0.0299120   0.0156549  -0.2673773   0.6886899  -0.0042877
   18  -0.0136243   0.0329727   0.0170261   0.0071443  -0.0042877   0.0815250
   19  -0.0000533  -0.0000092   0.0000109  -0.0003660  -0.0004943  -0.0000186
   20  -0.0000330  -0.0000626  -0.0000070   0.0010736   0.0000757   0.0000747
   21  -0.0000483   0.0000415  -0.0001767   0.0000651  -0.0000465  -0.0003940
   22   0.0000033  -0.0002137   0.0001309   0.0004392  -0.0005722   0.0002160
   23   0.0000237   0.0000535  -0.0001250  -0.0005454   0.0001242  -0.0003686
   24  -0.0000244  -0.0001671   0.0000918   0.0006221  -0.0003559   0.0000821
   25   0.0000540  -0.0000316   0.0000086   0.0004995  -0.0004953  -0.0002292
   26   0.0000376  -0.0000530   0.0000775  -0.0003952   0.0000905   0.0003439
   27  -0.0000433   0.0000476   0.0000261  -0.0006790   0.0004210   0.0002261
           19          20          21          22          23          24
    1  -0.1310961   0.1266028   0.0089115  -0.0583800  -0.0313340   0.0425596
    2   0.1272457  -0.2384918  -0.0139756  -0.0319632  -0.1427252   0.1281122
    3   0.0088509  -0.0138462  -0.0483748   0.0431099   0.1281097  -0.2203892
    4  -0.0007607  -0.0008570  -0.0000495  -0.0002409   0.0000482  -0.0001811
    5  -0.0000245   0.0009119   0.0001292   0.0009370  -0.0003886   0.0004542
    6  -0.0000585  -0.0001525   0.0007201  -0.0002264   0.0003575  -0.0000660
    7  -0.0155287  -0.0051458   0.0000023  -0.0040893  -0.0006152  -0.0000553
    8   0.0280100   0.0093989   0.0000784  -0.0189551  -0.0048265  -0.0020975
    9   0.0018779   0.0007602  -0.0017772   0.0268901   0.0045201   0.0014071
   10   0.0000083  -0.0000387   0.0000119   0.0000365   0.0000298   0.0000746
   11   0.0000003  -0.0000063  -0.0000961  -0.0000326  -0.0000667  -0.0000426
   12   0.0000102   0.0001074  -0.0001284  -0.0000413  -0.0000302  -0.0000087
   13  -0.0000533  -0.0000330  -0.0000483   0.0000033   0.0000237  -0.0000244
   14  -0.0000092  -0.0000626   0.0000415  -0.0002137   0.0000535  -0.0001671
   15   0.0000109  -0.0000070  -0.0001767   0.0001309  -0.0001250   0.0000918
   16  -0.0003660   0.0010736   0.0000651   0.0004392  -0.0005454   0.0006221
   17  -0.0004943   0.0000757  -0.0000465  -0.0005722   0.0001242  -0.0003559
   18  -0.0000186   0.0000747  -0.0003940   0.0002160  -0.0003686   0.0000821
   19   0.1400857  -0.1398433  -0.0097590   0.0035491  -0.0069471  -0.0015146
   20  -0.1398433   0.2556301   0.0151128   0.0101763  -0.0150735  -0.0027928
   21  -0.0097590   0.0151128   0.0468618  -0.0165635   0.0217319   0.0031705
   22   0.0035491   0.0101763  -0.0165635   0.0582855   0.0348155  -0.0474254
   23  -0.0069471  -0.0150735   0.0217319   0.0348155   0.1511842  -0.1403536
   24  -0.0015146  -0.0027928   0.0031705  -0.0474254  -0.1403536   0.2354724
   25   0.0041617   0.0080652   0.0174296   0.0003967   0.0045245   0.0059444
   26  -0.0079378  -0.0123824  -0.0229756   0.0058081   0.0117186   0.0172433
   27   0.0006008   0.0007435   0.0000986  -0.0060902  -0.0138418  -0.0197600
           25          26          27
    1  -0.0622207  -0.0303243  -0.0528402
    2  -0.0307556  -0.1148498  -0.1148913
    3  -0.0533042  -0.1149722  -0.2451611
    4  -0.0003279   0.0000125   0.0001702
    5   0.0009293  -0.0003797  -0.0005830
    6   0.0002778  -0.0004112  -0.0001457
    7  -0.0051280  -0.0008193   0.0002210
    8  -0.0155947  -0.0045650   0.0020604
    9  -0.0286668  -0.0052711   0.0021212
   10  -0.0000310   0.0000364   0.0000213
   11  -0.0002238   0.0000562   0.0001826
   12  -0.0000996   0.0001044   0.0000928
   13   0.0000540   0.0000376  -0.0000433
   14  -0.0000316  -0.0000530   0.0000476
   15   0.0000086   0.0000775   0.0000261
   16   0.0004995  -0.0003952  -0.0006790
   17  -0.0004953   0.0000905   0.0004210
   18  -0.0002292   0.0003439   0.0002261
   19   0.0041617  -0.0079378   0.0006008
   20   0.0080652  -0.0123824   0.0007435
   21   0.0174296  -0.0229756   0.0000986
   22   0.0003967   0.0058081  -0.0060902
   23   0.0045245   0.0117186  -0.0138418
   24   0.0059444   0.0172433  -0.0197600
   25   0.0625957   0.0335821   0.0586395
   26   0.0335821   0.1203646   0.1258610
   27   0.0586395   0.1258610   0.2625020
 **********************************************************************
 **                                                                  **
 **                       VIBRATIONAL ANALYSIS                       **
 **                       --------------------                       **
 **                                                                  **
 **        VIBRATIONAL FREQUENCIES (CM**-1) AND NORMAL MODES         **
 **     FORCE CONSTANTS (mDYN/ANGSTROM) AND REDUCED MASSES (AMU)     **
 **                  INFRARED INTENSITIES (KM/MOL)                   **
 **                                                                  **
 **********************************************************************
 

 Mode:                 1                      2                      3
 Frequency:      -237.04                 -56.10                  -7.92
 Force Cnst:      0.0339                 0.0020                 0.0000
 Red. Mass:       1.0234                 1.0533                 1.1863
 IR Active:          YES                    YES                    YES
 IR Intens:        0.120                  0.002                  1.620
 Raman Active:       YES                    YES                    YES
               X      Y      Z        X      Y      Z        X      Y      Z
 C          0.001  0.000 -0.024    0.036 -0.015  0.030   -0.061  0.015  0.019
 C         -0.000 -0.000  0.000   -0.023  0.006 -0.013    0.037 -0.005  0.050
 H          0.002 -0.008 -0.062   -0.034  0.256 -0.501    0.009 -0.271 -0.224
 H         -0.654 -0.244  0.054   -0.008  0.007 -0.011    0.100 -0.086  0.110
 H          0.657  0.245 -0.079   -0.045  0.004 -0.007   -0.018  0.079  0.113
 O         -0.001 -0.000  0.025   -0.016  0.009 -0.020    0.028 -0.010 -0.070
 H          0.010  0.008 -0.044   -0.166 -0.168  0.280    0.190  0.208 -0.326
 H          0.020  0.037  0.009    0.622 -0.024  0.170   -0.131  0.457  0.330
 H         -0.030 -0.035  0.006   -0.278 -0.126  0.180   -0.313 -0.332  0.290
 TransDip   0.002  0.000 -0.011    0.000 -0.001 -0.001   -0.001  0.002  0.041

 Mode:                 4                      5                      6
 Frequency:        97.00                 143.54                 178.21
 Force Cnst:      0.0105                 0.0160                 0.0739
 Red. Mass:       1.8964                 1.3141                 3.9479
 IR Active:          YES                    YES                    YES
 IR Intens:        0.714                  0.413                 18.459
 Raman Active:       YES                    YES                    YES
               X      Y      Z        X      Y      Z        X      Y      Z
 C          0.214 -0.006 -0.007    0.123  0.029  0.007   -0.043 -0.128  0.001
 C         -0.132 -0.004  0.051   -0.080 -0.021 -0.027   -0.261 -0.047  0.005
 H          0.165  0.191  0.178    0.245 -0.462 -0.154   -0.031 -0.174  0.013
 H         -0.127 -0.079  0.099   -0.100  0.013 -0.052   -0.585 -0.136  0.011
 H         -0.179  0.056  0.098   -0.092 -0.070 -0.049   -0.544 -0.205  0.010
 O         -0.096  0.010 -0.043   -0.052 -0.010  0.019    0.311  0.186 -0.006
 H          0.026 -0.098 -0.465    0.554  0.299  0.274   -0.010 -0.108 -0.007
 H          0.114  0.235  0.148   -0.004 -0.015 -0.057   -0.083 -0.119 -0.003
 H          0.549 -0.350  0.102   -0.297  0.290 -0.031   -0.059 -0.118 -0.001
 TransDip  -0.007 -0.001  0.026   -0.013  0.001 -0.016   -0.129 -0.048  0.002

 Mode:                 7                      8                      9
 Frequency:      1177.92                1255.51                1365.57
 Force Cnst:      1.1348                 1.2405                 1.2962
 Red. Mass:       1.3882                 1.3357                 1.1798
 IR Active:          YES                    YES                    YES
 IR Intens:        1.998                 10.378                 19.266
 Raman Active:       YES                    YES                    YES
               X      Y      Z        X      Y      Z        X      Y      Z
 C          0.000 -0.001  0.000   -0.000  0.000 -0.001   -0.098 -0.061  0.048
 C         -0.165 -0.066  0.016   -0.012 -0.006 -0.146    0.001 -0.003 -0.001
 H          0.001 -0.006  0.000    0.001 -0.003  0.006   -0.122  0.145 -0.229
 H          0.643  0.259 -0.066    0.263 -0.593  0.253   -0.001 -0.002 -0.001
 H          0.639  0.261 -0.066   -0.226  0.615  0.241   -0.002  0.004  0.002
 O          0.042  0.018 -0.004    0.007  0.004  0.078   -0.000  0.002  0.001
 H          0.001 -0.000 -0.001   -0.001 -0.001  0.012    0.451  0.323 -0.234
 H          0.001 -0.002 -0.000    0.000 -0.003 -0.003    0.377 -0.012  0.175
 H          0.001 -0.003  0.001   -0.000  0.001 -0.002    0.454  0.267 -0.288
 TransDip   0.042  0.016 -0.005   -0.010 -0.005 -0.103    0.124  0.049 -0.045

 Mode:                10                     11                     12
 Frequency:      1368.43                1377.92                1539.26
 Force Cnst:      1.3006                 1.3195                 1.6947
 Red. Mass:       1.1788                 1.1796                 1.2140
 IR Active:          YES                    YES                    YES
 IR Intens:       14.815                 17.569                 12.981
 Raman Active:       YES                    YES                    YES
               X      Y      Z        X      Y      Z        X      Y      Z
 C         -0.051 -0.008 -0.113    0.059 -0.109 -0.018   -0.001  0.000  0.000
 C          0.001 -0.001  0.001   -0.001  0.001 -0.000   -0.017  0.041 -0.000
 H         -0.029 -0.031  0.547   -0.116  0.563  0.086    0.002 -0.010 -0.004
 H         -0.002  0.006 -0.002    0.002  0.002 -0.001   -0.261  0.559 -0.337
 H         -0.000 -0.004  0.000    0.001  0.003  0.001   -0.205  0.587  0.325
 O         -0.000  0.001 -0.001    0.000 -0.001  0.000    0.042 -0.103  0.001
 H          0.201  0.108  0.556    0.098 -0.048  0.051   -0.006 -0.004  0.001
 H          0.322  0.290  0.223   -0.325  0.405  0.256    0.002  0.005  0.004
 H          0.113 -0.267  0.024   -0.353  0.376 -0.174    0.007  0.004 -0.004
 TransDip   0.063  0.004  0.106   -0.065  0.116  0.018   -0.046  0.106 -0.001

 Mode:                13                     14                     15
 Frequency:      1590.28                1590.58                1750.04
 Force Cnst:      1.5017                 1.5024                 8.3952
 Red. Mass:       1.0078                 1.0079                 4.6525
 IR Active:          YES                    YES                    YES
 IR Intens:        0.121                  0.127                 83.570
 Raman Active:       YES                    YES                    YES
               X      Y      Z        X      Y      Z        X      Y      Z
 C         -0.000  0.001 -0.001   -0.000  0.000  0.001   -0.004 -0.001 -0.000
 C          0.000  0.000 -0.000    0.000 -0.001  0.000   -0.173  0.425 -0.004
 H          0.106 -0.417  0.262    0.061 -0.254 -0.434   -0.002  0.002 -0.001
 H          0.003 -0.005  0.003    0.002 -0.005  0.005    0.179 -0.325  0.462
 H          0.001 -0.006 -0.004    0.003 -0.007 -0.003    0.101 -0.365 -0.454
 O         -0.000  0.000  0.000   -0.001  0.001 -0.000    0.112 -0.276  0.003
 H         -0.349 -0.212 -0.287   -0.229 -0.180  0.397    0.013  0.008  0.003
 H          0.390  0.194  0.240   -0.296  0.354  0.190    0.014  0.000  0.003
 H         -0.151  0.428 -0.209    0.466  0.077 -0.169    0.017 -0.001 -0.003
 TransDip   0.008 -0.003  0.007    0.006 -0.002 -0.010   -0.133  0.261 -0.003

 Mode:                16                     17                     18
 Frequency:      2996.55                3059.81                3062.11
 Force Cnst:      5.5194                 6.1952                 5.5680
 Red. Mass:       1.0433                 1.1231                 1.0079
 IR Active:          YES                    YES                    YES
 IR Intens:       45.126                130.862                  0.822
 Raman Active:       YES                    YES                    YES
               X      Y      Z        X      Y      Z        X      Y      Z
 C         -0.000 -0.000  0.000   -0.000  0.000  0.001   -0.000 -0.002 -0.000
 C         -0.021  0.052 -0.002   -0.008 -0.006 -0.102   -0.000  0.000  0.000
 H          0.001 -0.000  0.000    0.003  0.001  0.001    0.495  0.123 -0.002
 H          0.079 -0.346 -0.595   -0.089  0.373  0.606    0.001 -0.003 -0.004
 H          0.187 -0.304  0.624    0.185 -0.307  0.589   -0.000  0.000 -0.001
 O         -0.001  0.002  0.000    0.000  0.000  0.001    0.000 -0.000 -0.000
 H          0.000 -0.001 -0.000   -0.000  0.000 -0.001   -0.286  0.427  0.030
 H          0.002  0.002 -0.003    0.001  0.001 -0.002   -0.095 -0.286  0.382
 H          0.001  0.002  0.002   -0.003 -0.003 -0.007   -0.111 -0.240 -0.410
 TransDip  -0.092  0.194 -0.009   -0.033 -0.018 -0.364    0.008 -0.028  0.001

 Mode:                19                     20                     21
 Frequency:      3169.26                3173.65                3177.85
 Force Cnst:      6.5187                 6.5387                 6.5582
 Red. Mass:       1.1015                 1.1018                 1.1022
 IR Active:          YES                    YES                    YES
 IR Intens:       42.373                 23.850                 20.089
 Raman Active:       YES                    YES                    YES
               X      Y      Z        X      Y      Z        X      Y      Z
 C         -0.089  0.025  0.000    0.025  0.089 -0.006   -0.002 -0.006 -0.092
 C          0.000 -0.000  0.000   -0.000  0.000  0.000   -0.000 -0.000 -0.001
 H          0.723  0.191 -0.004   -0.406 -0.086  0.001    0.024  0.005 -0.017
 H          0.000  0.000 -0.000    0.000 -0.002 -0.003   -0.000  0.003  0.004
 H         -0.001  0.001 -0.002    0.000 -0.001  0.002    0.001 -0.002  0.004
 O         -0.000  0.000 -0.000    0.000 -0.000 -0.000    0.000  0.000  0.000
 H          0.352 -0.549 -0.039    0.311 -0.441 -0.034   -0.050  0.073 -0.012
 H         -0.014  0.019 -0.018   -0.114 -0.334  0.473   -0.129 -0.383  0.496
 H         -0.002  0.040  0.060   -0.093 -0.193 -0.364    0.175  0.378  0.632
 TransDip  -0.200  0.057  0.002    0.041  0.151 -0.007   -0.002 -0.013 -0.143

 STANDARD THERMODYNAMIC QUANTITIES AT   298.15 K  AND     1.00 ATM

   This Molecule has  3 Imaginary Frequencies
   Zero point vibrational energy:       45.851 kcal/mol

   Atom    1 Element C  Has Mass   12.00000
   Atom    2 Element C  Has Mass   12.00000
   Atom    3 Element H  Has Mass    1.00783
   Atom    4 Element H  Has Mass    1.00783
   Atom    5 Element H  Has Mass    1.00783
   Atom    6 Element O  Has Mass   15.99491
   Atom    7 Element H  Has Mass    1.00783
   Atom    8 Element H  Has Mass    1.00783
   Atom    9 Element H  Has Mass    1.00783
   Molecular Mass:    46.041890 amu
   Principal axes and moments of inertia in amu*Bohr^2:
                             1           2           3
    Eigenvalues --       60.08087   436.16240   472.39413
          X               0.99973    -0.02315     0.00095
          Y               0.02314     0.99972     0.00546
          Z              -0.00107    -0.00544     0.99998
   Rotational Symmetry Number is   1
   The Molecule is an Asymmetric Top
   Translational Enthalpy:        0.889 kcal/mol
   Rotational Enthalpy:           0.889 kcal/mol
   Vibrational Enthalpy:         47.144 kcal/mol
   gas constant (RT):             0.592 kcal/mol
   Translational Entropy:        37.406  cal/mol.K
   Rotational Entropy:           24.030  cal/mol.K
   Vibrational Entropy:           8.786  cal/mol.K

   Total Enthalpy:               49.514 kcal/mol
   Total Entropy:                70.222  cal/mol.K
Archival summary:
1\1\node018\FREQ\ProcedureUnspecified\6-31G*\126\guest94\SunMar2217:02:052020SunMar2217:02:052020\0\\#,FREQ,ProcedureUnspecified,6-31G*,\\0,1\O\C,1,1.22463\H,2,1.1017,1,122.236\H,2,1.1017,1,122.236,3,180,0\H,2,3.00004,1,78.3455,3,-96.5018,0\C,5,1.0922,2,112.93,1,4.47178,0\H,6,1.0922,5,109.471,2,178.212,0\H,6,1.0922,5,109.471,2,58.2124,0\H,6,1.0922,5,109.471,2,-61.7876,0\\\@

 Total job time:  11.25s(wall), 27.85s(cpu) 
 Sun Mar 22 17:02:05 2020

        *************************************************************
        *                                                           *
        *  Thank you very much for using Q-Chem.  Have a nice day.  *
        *                                                           *
        *************************************************************


