                  Welcome to Q-Chem
     A Quantum Leap Into The Future Of Chemistry


 Q-Chem 5.2 (devel), Q-Chem, Inc., Pleasanton, CA (2019)

 Yihan Shao,  Zhengting Gan,  E. Epifanovsky,  A. T. B. Gilbert,  M. Wormit,  
 J. Kussmann,  A. W. Lange,  A. Behn,  Jia Deng,  Xintian Feng,  D. Ghosh,  
 M. Goldey,  P. R. Horn,  L. D. Jacobson,  I. Kaliman,  T. Kus,  A. Landau,  
 Jie Liu,  E. I. Proynov,  R. M. Richard,  R. P. Steele,  E. J. Sundstrom,  
 H. L. Woodcock III,  P. M. Zimmerman,  D. Zuev,  B. Albrecht,  E. Alguire,  
 S. A. Baeppler,  D. Barton,  Z. Benda,  Y. A. Bernard,  E. J. Berquist,  
 K. B. Bravaya,  H. Burton,  D. Casanova,  Chun-Min Chang,  Yunqing Chen,  
 A. Chien,  K. D. Closser,  M. P. Coons,  S. Coriani,  S. Dasgupta,  
 A. L. Dempwolff,  M. Diedenhofen,  Hainam Do,  R. G. Edgar,  Po-Tung Fang,  
 S. Faraji,  S. Fatehi,  Qingguo Feng,  K. D. Fenk,  J. Fosso-Tande,  
 J. Gayvert,  Qinghui Ge,  A. Ghysels,  G. Gidofalvi,  J. Gomes,  
 J. Gonthier,  A. Gunina,  D. Hait,  M. W. D. Hanson-Heine,  
 P. H. P. Harbach,  A. W. Hauser,  M. F. Herbst,  J. E. Herr,  
 E. G. Hohenstein,  Z. C. Holden,  Kerwin Hui,  B. C. Huynh,  T.-C. Jagau,  
 Hyunjun Ji,  B. Kaduk,  K. Khistyaev,  Jaehoon Kim,  P. Klunzinger,  K. Koh,  
 D. Kosenkov,  L. Koulias,  T. Kowalczyk,  C. M. Krauter,  A. Kunitsa,  
 Ka Un Lao,  A. Laurent,  K. V. Lawler,  Joonho Lee,  D. Lefrancois,  
 S. Lehtola,  D. S. Levine,  Yi-Pei Li,  You-Sheng Lin,  Fenglai Liu,  
 E. Livshits,  A. Luenser,  P. Manohar,  E. Mansoor,  S. F. Manzer,  
 Shan-Ping Mao,  Yuezhi Mao,  N. Mardirossian,  A. V. Marenich,  
 T. Markovich,  L. A. Martinez-Martinez,  S. A. Maurer,  N. J. Mayhall,  
 S. C. McKenzie,  J.-M. Mewes,  P. Morgante,  A. F. Morrison,  
 J. W. Mullinax,  K. Nanda,  T. S. Nguyen-Beck,  R. Olivares-Amaya,  
 J. A. Parkhill,  Zheng Pei,  T. M. Perrine,  F. Plasser,  P. Pokhilko,  
 S. Prager,  A. Prociuk,  E. Ramos,  D. R. Rehn,  F. Rob,  M. Scheurer,  
 M. Schneider,  N. Sergueev,  S. M. Sharada,  S. Sharma,  D. W. Small,  
 T. Stauch,  T. Stein,  Yu-Chuan Su,  A. J. W. Thom,  A. Tkatchenko,  
 T. Tsuchimochi,  N. M. Tubman,  L. Vogt,  M. L. Vidal,  O. Vydrov,  
 M. A. Watson,  J. Wenzel,  M. de Wergifosse,  T. A. Wesolowski,  A. White,  
 J. Witte,  A. Yamada,  Jun Yang,  K. Yao,  S. Yeganeh,  S. R. Yost,  
 Zhi-Qiang You,  A. Zech,  Igor Ying Zhang,  Xing Zhang,  Yan Zhao,  
 Ying Zhu,  B. R. Brooks,  G. K. L. Chan,  C. J. Cramer,  M. S. Gordon,  
 W. J. Hehre,  A. Klamt,  M. W. Schmidt,  C. D. Sherrill,  D. G. Truhlar,  
 A. Aspuru-Guzik,  R. Baer,  A. T. Bell,  N. A. Besley,  Jeng-Da Chai,  
 A. E. DePrince, III,  R. A. DiStasio Jr.,  A. Dreuw,  B. D. Dunietz,  
 T. R. Furlani,  Chao-Ping Hsu,  Yousung Jung,  Jing Kong,  D. S. Lambrecht,  
 WanZhen Liang,  C. Ochsenfeld,  V. A. Rassolov,  L. V. Slipchenko,  
 J. E. Subotnik,  T. Van Voorhis,  J. M. Herbert,  A. I. Krylov,  
 P. M. W. Gill,  M. Head-Gordon

 Contributors to earlier versions of Q-Chem not listed above: 
 R. D. Adamson,  B. Austin,  J. Baker,  G. J. O. Beran,  K. Brandhorst,  
 S. T. Brown,  E. F. C. Byrd,  A. K. Chakraborty,  C.-L. Cheng,  
 Siu Hung Chien,  D. M. Chipman,  D. L. Crittenden,  H. Dachsel,  
 R. J. Doerksen,  A. D. Dutoi,  L. Fusti-Molnar,  W. A. Goddard III,  
 A. Golubeva-Zadorozhnaya,  S. R. Gwaltney,  G. Hawkins,  A. Heyden,  
 S. Hirata,  G. Kedziora,  F. J. Keil,  C. Kelley,  Jihan Kim,  R. A. King,  
 R. Z. Khaliullin,  P. P. Korambath,  W. Kurlancheek,  A. M. Lee,  M. S. Lee,  
 S. V. Levchenko,  Ching Yeh Lin,  D. Liotard,  R. C. Lochan,  I. Lotan,  
 P. E. Maslen,  N. Nair,  D. P. O'Neill,  D. Neuhauser,  E. Neuscamman,  
 C. M. Oana,  R. Olson,  B. Peters,  R. Peverati,  P. A. Pieniazek,  
 Y. M. Rhee,  J. Ritchie,  M. A. Rohrdanz,  E. Rosta,  N. J. Russ,  
 H. F. Schaefer III,  N. E. Schultz,  N. Shenvi,  A. C. Simmonett,  A. Sodt,  
 D. Stuck,  K. S. Thanthiriwatte,  V. Vanovschi,  Tao Wang,  A. Warshel,  
 C. F. Williams,  Q. Wu,  X. Xu,  W. Zhang

 Please cite Q-Chem as follows:
 Y. Shao et al., Mol. Phys. 113, 184-215 (2015)
 DOI: 10.1080/00268976.2014.952696

 Q-Chem 5.2.1 for Intel X86 EM64T Linux

 Parts of Q-Chem use Armadillo 8.300.2 (Tropical Shenanigans).
 http://arma.sourceforge.net/

 Q-Chem begins on Mon Mar  9 18:26:02 2020  

Host: node018
0

     Scratch files written to /tmp/ypli/105347.h81/qchem14889//
NAlpha2: 26
NElect   26
Mult     1

Checking the input file for inconsistencies... 	...done.

--------------------------------------------------------------
User input:
--------------------------------------------------------------
$rem
jobtype = freq
exchange = b3lyp
basis = 6-31g*
$end

$molecule
0 1
C     -6.74232213    0.90831215   -0.04452688
C     -5.40137974    1.53728603   -0.26583403
H     -7.49860813    1.69363751    0.02422766
H     -6.73593423    0.32759792    0.88115702
H     -6.97140665    0.24959708   -0.88538475
O     -4.45455553    1.39828849    0.50137776
H     -5.11994643    2.02144483    0.84299602
H     -5.30650933    2.14835166   -1.17925209
H     -4.71669082    1.42014844    0.99605666
$end
--------------------------------------------------------------
 ----------------------------------------------------------------
             Standard Nuclear Orientation (Angstroms)
    I     Atom           X                Y                Z
 ----------------------------------------------------------------
    1      C       1.2330994383    -0.1598953358     0.0168250582
    2      C      -0.1310647745     0.4579015674     0.0071051496
    3      H       1.7386811867     0.0750722552    -0.9226476388
    4      H       1.1528626117    -1.2443148709     0.1252539672
    5      H       1.8043119902     0.2479230373     0.8539795323
    6      O      -1.1674111518    -0.1900933367     0.1095703721
    7      H      -0.7714991869    -0.2620133667    -0.7769132063
    8      H      -0.1564143546     1.5554917318    -0.0996065228
    9      H      -1.0408610154    -0.6394494827    -0.2002103549
 ----------------------------------------------------------------
 Molecular Point Group                 C1    NOp =  1
 Largest Abelian Subgroup              C1    NOp =  1
 Nuclear Repulsion Energy =          91.35109015 hartrees
 There are       13 alpha and       13 beta electrons
 Requested basis set is 6-31G(d)
 There are 24 shells and 57 basis functions

 Total QAlloc Memory Limit   2000 MB
 Mega-Array Size       188 MB
 MEM_STATIC part       192 MB

                       Distance Matrix (Angstroms)
             C (  1)   C (  2)   H (  3)   H (  4)   H (  5)   O (  6)
   C (  2)  1.497569
   H (  3)  1.092443  2.122957
   H (  4)  1.092777  2.135409  1.783834
   H (  5)  1.092441  2.122963  1.786222  1.783873
   O (  6)  2.402491  1.226544  3.095345  2.548588  3.094696
   H (  7)  2.158440  1.242223  2.536902  2.341365  3.091060  0.973536
   H (  8)  2.210624  1.103057  2.541737  3.098981  2.542343  2.028038
   H (  9)  2.334089  1.440447  2.959445  2.298742  3.161290  0.560268
             H (  7)   H (  8)
   H (  8)  2.034797
   H (  9)  0.740000  2.368572
 
 A cutoff of  1.0D-11 yielded    299 shell pairs
 There are      1733 function pairs
 Smallest overlap matrix eigenvalue = 4.60E-03
 Guess from superposition of atomic densities
 Warning:  Energy on first SCF cycle will be non-variational
 SAD guess density has 26.000000 electrons

 -----------------------------------------------------------------------
  General SCF calculation program by
  Eric Jon Sundstrom, Paul Horn, Yuezhi Mao, Dmitri Zuev, Alec White,
  David Stuck, Shaama M.S., Shane Yost, Joonho Lee, David Small,
  Daniel Levine, Susi Lehtola, Hugh Burton, Evgeny Epifanovsky,
  Bang C. Huynh
 -----------------------------------------------------------------------
 Exchange:     0.2000 Hartree-Fock + 0.0800 Slater + 0.7200 B88
 Correlation:  0.1900 VWN1RPA + 0.8100 LYP
 Using SG-1 standard quadrature grid
 using 2 threads for integral computing
 -------------------------------------------------------
 OpenMP Integral computing Module                
 Release: version 2.0, May 2017, Q-Chem Inc. Pleasanton 
 -------------------------------------------------------
 A restricted SCF calculation will be
 performed using DIIS
 SCF converges when DIIS error is below 1.0e-08
 ---------------------------------------
  Cycle       Energy         DIIS error
 ---------------------------------------
    1    -155.8345494561      1.61e-01  
    2    -153.9946056927      2.04e-02  
    3    -153.9485594280      2.28e-02  
    4    -154.1308654145      3.84e-03  
    5    -154.1361629794      1.07e-03  
    6    -154.1365553153      1.62e-04  
    7    -154.1365630130      7.21e-05  
    8    -154.1365649250      8.66e-06  
    9    -154.1365649558      1.57e-06  
   10    -154.1365649569      1.75e-07  
   11    -154.1365649569      2.99e-08  
   12    -154.1365649569      8.43e-09  Convergence criterion met
 ---------------------------------------
 SCF time:   CPU 4.62s  wall 3.00s 
 SCF   energy in the final basis set =     -154.1365649569
 Total energy in the final basis set =     -154.1365649569
 
 --------------------------------------------------------------
 
                    Orbital Energies (a.u.)
 --------------------------------------------------------------
 
 Alpha MOs
 -- Occupied --
-19.2045 -10.1864 -10.1689  -1.4189  -0.7985  -0.7049  -0.5995  -0.5237
 -0.4871  -0.3930  -0.3858  -0.3335  -0.1309
 -- Virtual --
  0.0286   0.1381   0.1547   0.1753   0.1861   0.2241   0.2768   0.3336
  0.5321   0.5696   0.5932   0.6121   0.6612   0.6705   0.7760   0.8086
  0.8631   0.9021   0.9238   0.9474   0.9762   1.0343   1.0648   1.3085
  1.3627   1.4574   1.5071   1.5835   1.7396   1.8155   2.0262   2.0548
  2.1433   2.2597   2.3198   2.3703   2.5384   2.6335   2.7844   2.8434
  3.7155   3.9762   4.1773   4.4015
 --------------------------------------------------------------
 
          Ground-State Mulliken Net Atomic Charges

     Atom                 Charge (a.u.)
  ----------------------------------------
      1 C                    -0.434499
      2 C                    -0.330846
      3 H                     0.161029
      4 H                     0.117955
      5 H                     0.128235
      6 O                    -0.104561
      7 H                     0.211563
      8 H                     0.123642
      9 H                     0.127481
  ----------------------------------------
  Sum of atomic charges =     0.000000

 -----------------------------------------------------------------
                    Cartesian Multipole Moments
 -----------------------------------------------------------------
    Charge (ESU x 10^10)
                 0.0000
    Dipole Moment (Debye)
         X      -0.5930      Y      -1.1908      Z      -0.6235
       Tot       1.4692
    Quadrupole Moments (Debye-Ang)
        XX     -20.8189     XY       1.1390     YY     -18.5598
        XZ       0.7640     YZ       0.9299     ZZ     -20.8852
    Octopole Moments (Debye-Ang^2)
       XXX      -7.7529    XXY      -0.9703    XYY      -3.5749
       YYY      -2.2122    XXZ      -2.2455    XYZ      -1.1639
       YYZ      -0.1112    XZZ      -2.5129    YZZ      -1.4811
       ZZZ       1.4423
    Hexadecapole Moments (Debye-Ang^3)
      XXXX    -157.2690   XXXY       4.2404   XXYY     -31.7763
      XYYY       2.8492   YYYY     -43.5374   XXXZ      -0.5584
      XXYZ       1.2627   XYYZ       0.2138   YYYZ       0.1815
      XXZZ     -28.8906   XYZZ       1.6240   YYZZ     -13.9225
      XZZZ      -1.5174   YZZZ       0.9260   ZZZZ     -32.6207
 -----------------------------------------------------------------
 Calculating MO derivatives via CPSCF
    1     0    30    0.0439553  
    2     0    30    0.0048192  
    3     0    30    0.0003321  
    4    14    16    0.0000115  
    5    30     0    0.0000003  Converged
 Time for AOints: 0.4 s (CPU) 0.2 s (wall)
 ------------------------------------------------------------------------------
                     AOints        : Timing summary (seconds)
 ------------------------------------------------------------------------------
     job step          cpu (% of tot)      sys (% of tot)     wall (% of tot)
 ------------------------------------------------------------------------------
  AOints            0.3902E+00 ( 4.2)   0.3000E-05 (10.0)   0.2196E+00 ( 4.6)
 ------------------------------------------------------------------------------
   Grand Totals     0.9378E+01          0.3000E-04          0.4813E+01
 ------------------------------------------------------------------------------
 Polarizability Matrix (a.u.)
            1           2           3
    1 -30.0790965  -3.9813380  -5.0806861
    2  -3.9813380 -28.5731618  -3.8228051
    3  -5.0806861  -3.8228051 -24.9578107
 Calculating analytic Hessian of the SCF energy
 
 Direct stationary perturbation theory relativistic correction:
 
 rels  =       0.047458835178
 relv  =      -0.200966866919
 rel2e =       0.074513712977
 E_rel =      -0.078994318764
 
 Hessian of the SCF Energy
            1           2           3           4           5           6
    1   0.4763723   0.0521873  -0.0069974  -0.1873438   0.0544985   0.0099867
    2   0.0521873   0.5735178  -0.0115285   0.0641552  -0.1165013   0.0126804
    3  -0.0069974  -0.0115285   0.5595330   0.0099756   0.0380163  -0.0285930
    4  -0.1873438   0.0641552   0.0099756   1.0209895   0.3970656  -0.1175968
    5   0.0544985  -0.1165013   0.0380163   0.3970656   0.7325686  -0.1353189
    6   0.0099867   0.0126804  -0.0285930  -0.1175968  -0.1353189  -0.0935624
    7  -0.0865898  -0.0322276   0.1038146  -0.0297566  -0.0125131   0.0092113
    8  -0.0325574  -0.0604557   0.0489078   0.0133055   0.0078963  -0.0035802
    9   0.1036156   0.0531934  -0.2558440  -0.0000780  -0.0016283   0.0082267
   10  -0.0493606  -0.0212579   0.0020012   0.0006123   0.0323987  -0.0065559
   11  -0.0208912  -0.3104786   0.0256628  -0.0007986  -0.0144051   0.0051754
   12   0.0012001   0.0268889  -0.0491450   0.0012096  -0.0003373  -0.0023365
   13  -0.1039068  -0.0560426  -0.0965877  -0.0248231  -0.0007396  -0.0221313
   14  -0.0516563  -0.0915038  -0.0746363   0.0083222   0.0104911   0.0091872
   15  -0.0928377  -0.0767894  -0.2058547  -0.0046810   0.0061769   0.0100672
   16  -0.0258863  -0.0327588   0.0225095  -0.7205863  -0.4371660   0.0981950
   17   0.0109651   0.0036161  -0.0136311  -0.5533769  -0.3087755   0.1071773
   18  -0.0357363  -0.0055744  -0.0188630   0.2417104   0.2185441   0.2933058
   19  -0.0283807  -0.0011458  -0.0221977   0.0738359   0.0895009   0.0543954
   20  -0.0017882   0.0037515   0.0031648  -0.0106707  -0.0377647  -0.0280973
   21   0.0140383  -0.0016413   0.0074301  -0.1419751  -0.1524531  -0.1803896
   22   0.0008591   0.0272550  -0.0028617  -0.0634913   0.0295549   0.0025112
   23  -0.0005124  -0.0101622   0.0004448   0.0177337  -0.2921987   0.0273292
   24   0.0002628   0.0013428  -0.0023551   0.0024941   0.0249631  -0.0091474
   25   0.0042365  -0.0001647  -0.0096566  -0.0694367  -0.1526000  -0.0280156
   26  -0.0102453   0.0082162  -0.0164007   0.0642640   0.0186893   0.0054470
   27   0.0064678   0.0014282  -0.0063083   0.0089412   0.0020371   0.0024292
            7           8           9          10          11          12
    1  -0.0865898  -0.0325574   0.1036156  -0.0493606  -0.0208912   0.0012001
    2  -0.0322276  -0.0604557   0.0531934  -0.0212579  -0.3104786   0.0268889
    3   0.1038146   0.0489078  -0.2558440   0.0020012   0.0256628  -0.0491450
    4  -0.0297566   0.0133055  -0.0000780   0.0006123  -0.0007986   0.0012096
    5  -0.0125131   0.0078963  -0.0016283   0.0323987  -0.0144051  -0.0003373
    6   0.0092113  -0.0035802   0.0082267  -0.0065559   0.0051754  -0.0023365
    7   0.1118271   0.0295194  -0.1089115  -0.0009834  -0.0000349  -0.0013023
    8   0.0295194   0.0598760  -0.0563160  -0.0160947  -0.0062966   0.0284990
    9  -0.1089115  -0.0563160   0.2699642  -0.0006251  -0.0002836  -0.0004854
   10  -0.0009834  -0.0160947  -0.0006251   0.0512241   0.0184110  -0.0009649
   11  -0.0000349  -0.0062966  -0.0002836   0.0184110   0.3397394  -0.0296930
   12  -0.0013023   0.0284990  -0.0004854  -0.0009649  -0.0296930   0.0462915
   13   0.0083195   0.0055270   0.0100048  -0.0007749   0.0000434   0.0001784
   14   0.0048603   0.0036252   0.0061561  -0.0165231  -0.0091472  -0.0256579
   15  -0.0139439  -0.0132102  -0.0232233   0.0040379   0.0010526   0.0041331
   16  -0.0114825   0.0043766  -0.0026793   0.0046317   0.0001045  -0.0001501
   17   0.0015266  -0.0002624  -0.0007381  -0.0007190   0.0042789   0.0001340
   18   0.0145752  -0.0094512  -0.0020962   0.0066746  -0.0083810   0.0013959
   19   0.0049408  -0.0031954  -0.0017601   0.0026815  -0.0028052  -0.0000256
   20   0.0006031  -0.0011226   0.0003910   0.0001438   0.0002860  -0.0006771
   21  -0.0045504   0.0038651   0.0032046  -0.0036757   0.0047585  -0.0008660
   22   0.0008444  -0.0003059   0.0003721  -0.0053812   0.0032742  -0.0000013
   23   0.0005970  -0.0001514  -0.0003149   0.0023355   0.0001680   0.0000060
   24  -0.0000833   0.0001371  -0.0001681   0.0014404   0.0007220   0.0007783
   25   0.0028805  -0.0005751   0.0000614  -0.0026496   0.0026966  -0.0001438
   26   0.0076691  -0.0031089  -0.0004597   0.0013058  -0.0041448   0.0008374
   27   0.0011903   0.0011485   0.0004217  -0.0023326   0.0009864   0.0002341
           13          14          15          16          17          18
    1  -0.1039068  -0.0516563  -0.0928377  -0.0258863   0.0109651  -0.0357363
    2  -0.0560426  -0.0915038  -0.0767894  -0.0327588   0.0036161  -0.0055744
    3  -0.0965877  -0.0746363  -0.2058547   0.0225095  -0.0136311  -0.0188630
    4  -0.0248231   0.0083222  -0.0046810  -0.7205863  -0.5533769   0.2417104
    5  -0.0007396   0.0104911   0.0061769  -0.4371660  -0.3087755   0.2185441
    6  -0.0221313   0.0091872   0.0100672   0.0981950   0.1071773   0.2933058
    7   0.0083195   0.0048603  -0.0139439  -0.0114825   0.0015266   0.0145752
    8   0.0055270   0.0036252  -0.0132102   0.0043766  -0.0002624  -0.0094512
    9   0.0100048   0.0061561  -0.0232233  -0.0026793  -0.0007381  -0.0020962
   10  -0.0007749  -0.0165231   0.0040379   0.0046317  -0.0007190   0.0066746
   11   0.0000434  -0.0091472   0.0010526   0.0001045   0.0042789  -0.0083810
   12   0.0001784  -0.0256579   0.0041331  -0.0001501   0.0001340   0.0013959
   13   0.1304608   0.0533114   0.1112593  -0.0072867  -0.0079300   0.0016523
   14   0.0533114   0.0851929   0.0833324  -0.0005320   0.0008307  -0.0012613
   15   0.1112593   0.0833324   0.2152300  -0.0025348  -0.0042466   0.0008711
   16  -0.0072867  -0.0005320  -0.0025348  -0.6497089  -1.2793191  -1.4675162
   17  -0.0079300   0.0008307  -0.0042466  -1.2793191   4.9381508   4.4933014
   18   0.0016523  -0.0012613   0.0008711  -1.4675162   4.4933014   1.0104763
   19  -0.0003358   0.0006012   0.0004178   0.0412732  -0.0202500  -0.1000519
   20   0.0040627   0.0025443   0.0017661   0.0184999   0.0825969  -0.0586639
   21  -0.0023236   0.0030158   0.0000538   0.1247914   0.0014511  -0.1171593
   22   0.0011116  -0.0005737  -0.0002672   0.0026735  -0.0459855  -0.0084063
   23   0.0002260   0.0000299   0.0002431  -0.0031367  -0.0160347  -0.0160484
   24  -0.0000436  -0.0005264  -0.0006813  -0.0037174   0.0045553  -0.0177300
   25  -0.0027646   0.0021900  -0.0014504   1.3663723   1.8950888   1.3470981
   26   0.0015416  -0.0020631   0.0016751   1.7299316  -4.7044008  -4.6124653
   27  -0.0020086   0.0003903  -0.0005960   1.2311019  -4.5880034  -1.1502006
           19          20          21          22          23          24
    1  -0.0283807  -0.0017882   0.0140383   0.0008591  -0.0005124   0.0002628
    2  -0.0011458   0.0037515  -0.0016413   0.0272550  -0.0101622   0.0013428
    3  -0.0221977   0.0031648   0.0074301  -0.0028617   0.0004448  -0.0023551
    4   0.0738359  -0.0106707  -0.1419751  -0.0634913   0.0177337   0.0024941
    5   0.0895009  -0.0377647  -0.1524531   0.0295549  -0.2921987   0.0249631
    6   0.0543954  -0.0280973  -0.1803896   0.0025112   0.0273292  -0.0091474
    7   0.0049408   0.0006031  -0.0045504   0.0008444   0.0005970  -0.0000833
    8  -0.0031954  -0.0011226   0.0038651  -0.0003059  -0.0001514   0.0001371
    9  -0.0017601   0.0003910   0.0032046   0.0003721  -0.0003149  -0.0001681
   10   0.0026815   0.0001438  -0.0036757  -0.0053812   0.0023355   0.0014404
   11  -0.0028052   0.0002860   0.0047585   0.0032742   0.0001680   0.0007220
   12  -0.0000256  -0.0006771  -0.0008660  -0.0000013   0.0000060   0.0007783
   13  -0.0003358   0.0040627  -0.0023236   0.0011116   0.0002260  -0.0000436
   14   0.0006012   0.0025443   0.0030158  -0.0005737   0.0000299  -0.0005264
   15   0.0004178   0.0017661   0.0000538  -0.0002672   0.0002431  -0.0006813
   16   0.0412732   0.0184999   0.1247914   0.0026735  -0.0031367  -0.0037174
   17  -0.0202500   0.0825969   0.0014511  -0.0459855  -0.0160347   0.0045553
   18  -0.1000519  -0.0586639  -0.1171593  -0.0084063  -0.0160484  -0.0177300
   19  -0.1898570   0.0934856  -0.1473466  -0.0044501  -0.0058512   0.0048398
   20   0.0934856  -0.0294535  -0.1241524   0.0004817  -0.0002103  -0.0082474
   21  -0.1473466  -0.1241524   0.5193187   0.0059240   0.0071194   0.0034209
   22  -0.0044501   0.0004817   0.0059240   0.0741091  -0.0097631  -0.0011339
   23  -0.0058512  -0.0002103   0.0071194  -0.0097631   0.3233326  -0.0271441
   24   0.0048398  -0.0082474   0.0034209  -0.0011339  -0.0271441   0.0157153
   25   0.1002921  -0.1048178   0.1551178  -0.0062750  -0.0016288  -0.0040589
   26  -0.1503401  -0.0206276   0.2580369  -0.0039377  -0.0047731   0.0041975
   27   0.2117288   0.2145162  -0.2350130   0.0038631   0.0083648   0.0101674
           25          26          27
    1   0.0042365  -0.0102453   0.0064678
    2  -0.0001647   0.0082162   0.0014282
    3  -0.0096566  -0.0164007  -0.0063083
    4  -0.0694367   0.0642640   0.0089412
    5  -0.1526000   0.0186893   0.0020371
    6  -0.0280156   0.0054470   0.0024292
    7   0.0028805   0.0076691   0.0011903
    8  -0.0005751  -0.0031089   0.0011485
    9   0.0000614  -0.0004597   0.0004217
   10  -0.0026496   0.0013058  -0.0023326
   11   0.0026966  -0.0041448   0.0009864
   12  -0.0001438   0.0008374   0.0002341
   13  -0.0027646   0.0015416  -0.0020086
   14   0.0021900  -0.0020631   0.0003903
   15  -0.0014504   0.0016751  -0.0005960
   16   1.3663723   1.7299316   1.2311019
   17   1.8950888  -4.7044008  -4.5880034
   18   1.3470981  -4.6124653  -1.1502006
   19   0.1002921  -0.1503401   0.2117288
   20  -0.1048178  -0.0206276   0.2145162
   21   0.1551178   0.2580369  -0.2350130
   22  -0.0062750  -0.0039377   0.0038631
   23  -0.0016288  -0.0047731   0.0083648
   24  -0.0040589   0.0041975   0.0101674
   25  -1.3926555  -1.6401890  -1.4589520
   26  -1.6401890   4.7122127   4.3591318
   27  -1.4589520   4.3591318   1.3788655
 **********************************************************************
 **                                                                  **
 **                       VIBRATIONAL ANALYSIS                       **
 **                       --------------------                       **
 **                                                                  **
 **        VIBRATIONAL FREQUENCIES (CM**-1) AND NORMAL MODES         **
 **     FORCE CONSTANTS (mDYN/ANGSTROM) AND REDUCED MASSES (AMU)     **
 **                  INFRARED INTENSITIES (KM/MOL)                   **
 **                                                                  **
 **********************************************************************
 

 Mode:                 1                      2                      3
 Frequency:     -7538.73               -6573.14               -2469.46
 Force Cnst:     35.7913                28.2652                 3.8805
 Red. Mass:       1.0689                 1.1103                 1.0800
 IR Active:          YES                    YES                    YES
 IR Intens:       62.733                833.353                454.575
 Raman Active:       YES                    YES                    YES
               X      Y      Z        X      Y      Z        X      Y      Z
 C         -0.002 -0.009 -0.011    0.000  0.009 -0.007    0.006  0.004 -0.025
 C          0.005  0.006  0.015    0.001  0.000  0.026   -0.017 -0.021  0.015
 H         -0.005  0.014 -0.008    0.006  0.059  0.007   -0.033  0.069 -0.026
 H         -0.006 -0.013 -0.042    0.009  0.000 -0.065    0.006  0.000 -0.094
 H          0.008 -0.038 -0.002   -0.002 -0.034  0.017    0.022 -0.040 -0.016
 O         -0.047  0.013 -0.037    0.038  0.032 -0.062   -0.051  0.033 -0.001
 H         -0.119  0.018  0.008   -0.090 -0.066  0.143    0.905 -0.360  0.138
 H          0.011  0.003  0.044   -0.014  0.000  0.078    0.008  0.002  0.052
 H          0.814 -0.150  0.538   -0.533 -0.571  0.577    0.020  0.007  0.076
 TransDip   0.030 -0.240  0.077   -0.669 -0.628 -0.116    0.600  0.309  0.107

 Mode:                 4                      5                      6
 Frequency:     -1014.32                -225.65                 338.79
 Force Cnst:      0.7294                 0.0548                 0.1450
 Red. Mass:       1.2033                 1.8261                 2.1448
 IR Active:          YES                    YES                    YES
 IR Intens:      148.629                 15.011                  6.256
 Raman Active:       YES                    YES                    YES
               X      Y      Z        X      Y      Z        X      Y      Z
 C         -0.004 -0.018 -0.029    0.059  0.028 -0.036   -0.131 -0.028 -0.026
 C          0.003  0.046  0.088    0.036 -0.083  0.201   -0.030  0.195  0.093
 H         -0.055 -0.288 -0.130   -0.132 -0.155 -0.192   -0.035 -0.390 -0.067
 H         -0.026  0.009  0.284    0.254  0.046  0.278   -0.502  0.004  0.139
 H          0.075  0.158 -0.185    0.205  0.373 -0.297    0.059 -0.151 -0.091
 O         -0.014 -0.051 -0.046   -0.074  0.056 -0.080    0.148 -0.064 -0.036
 H          0.294  0.688  0.319   -0.281 -0.497 -0.232    0.029 -0.586 -0.155
 H         -0.043 -0.000 -0.253    0.073 -0.099 -0.113   -0.129  0.175  0.017
 H         -0.011 -0.091 -0.010   -0.065  0.104 -0.131    0.143 -0.029 -0.074
 TransDip  -0.109 -0.199 -0.317   -0.103 -0.052 -0.047   -0.072 -0.029 -0.019

 Mode:                 7                      8                      9
 Frequency:       489.56                 999.40                1075.86
 Force Cnst:      0.1520                 1.4573                 1.2340
 Red. Mass:       1.0766                 2.4765                 1.8094
 IR Active:          YES                    YES                    YES
 IR Intens:       79.874                  1.588                  2.288
 Raman Active:       YES                    YES                    YES
               X      Y      Z        X      Y      Z        X      Y      Z
 C          0.002  0.002  0.002    0.291 -0.016 -0.030    0.045 -0.171  0.051
 C         -0.005 -0.018 -0.077   -0.136  0.106 -0.006   -0.113  0.157 -0.021
 H         -0.046 -0.267 -0.091    0.533 -0.341  0.022   -0.341  0.308 -0.029
 H         -0.017  0.033  0.326   -0.214  0.014  0.048    0.737 -0.213 -0.062
 H          0.022  0.269 -0.143    0.249 -0.353  0.137    0.062  0.237 -0.171
 O          0.000  0.002 -0.003   -0.112 -0.023  0.010    0.022 -0.015 -0.006
 H          0.041  0.056 -0.006   -0.128 -0.110  0.004    0.005 -0.071 -0.019
 H          0.031  0.065  0.837   -0.401  0.103  0.057   -0.004  0.164  0.022
 H         -0.000 -0.009  0.011   -0.112 -0.016  0.000    0.010 -0.016 -0.008
 TransDip   0.085  0.110  0.251    0.002 -0.038  0.014    0.044  0.013  0.016

 Mode:                10                     11                     12
 Frequency:      1084.47                1396.18                1468.83
 Force Cnst:      0.8388                 1.3661                 1.4490
 Red. Mass:       1.2105                 1.1894                 1.1399
 IR Active:          YES                    YES                    YES
 IR Intens:        1.928                 13.156                  2.270
 Raman Active:       YES                    YES                    YES
               X      Y      Z        X      Y      Z        X      Y      Z
 C          0.026  0.042  0.116   -0.110  0.063  0.011    0.041  0.034  0.020
 C          0.000 -0.024 -0.043   -0.004  0.004 -0.012   -0.046  0.041  0.002
 H         -0.558 -0.009 -0.204    0.394 -0.365  0.146   -0.029 -0.214 -0.082
 H         -0.246  0.023 -0.220    0.597 -0.010 -0.103   -0.128  0.008 -0.284
 H          0.647 -0.220 -0.200    0.406 -0.335 -0.130   -0.097  0.132  0.049
 O         -0.004 -0.002 -0.013   -0.009 -0.006  0.003   -0.033 -0.051  0.004
 H         -0.014  0.061 -0.015    0.006  0.000  0.022   -0.029 -0.038  0.022
 H         -0.081 -0.022 -0.014    0.106  0.008  0.031    0.892  0.081 -0.029
 H         -0.008 -0.008 -0.008   -0.008 -0.003 -0.001   -0.039 -0.054  0.004
 TransDip  -0.000  0.042  0.013   -0.079 -0.065 -0.056   -0.011  0.040 -0.025

 Mode:                13                     14                     15
 Frequency:      1473.00                1536.53                2015.17
 Force Cnst:      1.3454                 1.4558                14.1367
 Red. Mass:       1.0524                 1.0466                 5.9085
 IR Active:          YES                    YES                    YES
 IR Intens:        5.168                  8.087                 15.498
 Raman Active:       YES                    YES                    YES
               X      Y      Z        X      Y      Z        X      Y      Z
 C          0.001  0.013 -0.053   -0.027 -0.047  0.007   -0.042 -0.008  0.014
 C         -0.020  0.010 -0.009   -0.003  0.005 -0.005    0.481  0.243 -0.063
 H         -0.120  0.395 -0.005    0.427  0.402  0.337   -0.164  0.150 -0.024
 H          0.025  0.085  0.669   -0.324 -0.016 -0.006    0.084 -0.007 -0.060
 H          0.149 -0.464  0.097    0.378  0.315 -0.420   -0.081 -0.018  0.057
 O         -0.009 -0.018 -0.001   -0.014 -0.013  0.003   -0.280 -0.175  0.014
 H         -0.014 -0.020 -0.004   -0.005  0.005  0.014   -0.167 -0.362  0.328
 H          0.349  0.028 -0.004    0.118  0.010 -0.005   -0.199  0.339  0.131
 H         -0.013 -0.019 -0.001   -0.013 -0.014  0.004   -0.256 -0.125 -0.063
 TransDip  -0.065  0.008  0.032   -0.048  0.075 -0.018   -0.001 -0.091 -0.088

 Mode:                16                     17                     18
 Frequency:      3031.58                3033.56                3098.86
 Force Cnst:      5.6001                 5.8961                 6.2196
 Red. Mass:       1.0342                 1.0875                 1.0993
 IR Active:          YES                    YES                    YES
 IR Intens:      134.299                 13.983                 41.416
 Raman Active:       YES                    YES                    YES
               X      Y      Z        X      Y      Z        X      Y      Z
 C         -0.043  0.003 -0.024   -0.001  0.003 -0.003    0.002 -0.034 -0.085
 C         -0.002  0.004 -0.001   -0.003 -0.084  0.009   -0.001  0.001  0.001
 H          0.166  0.089 -0.364   -0.003 -0.015  0.017   -0.330 -0.179  0.631
 H         -0.034 -0.439  0.037   -0.005 -0.060  0.013    0.026  0.370 -0.050
 H          0.405  0.298  0.616    0.012  0.009  0.013    0.299  0.213  0.421
 O         -0.000  0.000 -0.000    0.005  0.001  0.001   -0.001 -0.001 -0.000
 H          0.002  0.000  0.018    0.004  0.032 -0.051    0.002  0.009 -0.004
 H         -0.002 -0.031  0.003   -0.042  0.986 -0.098    0.002 -0.003 -0.002
 H          0.001  0.003 -0.005    0.003 -0.009  0.016   -0.002 -0.003  0.002
 TransDip  -0.331  0.035 -0.164    0.075 -0.092  0.018   -0.070 -0.056 -0.186

 Mode:                19                     20                     21
 Frequency:      3138.93                4296.67               15142.72
 Force Cnst:      6.4075                11.6004               144.3623
 Red. Mass:       1.1038                 1.0665                 1.0686
 IR Active:          YES                    YES                    YES
 IR Intens:       36.436               1201.553                363.553
 Raman Active:       YES                    YES                    YES
               X      Y      Z        X      Y      Z        X      Y      Z
 C         -0.030 -0.081  0.035    0.003  0.002 -0.003   -0.000 -0.000  0.000
 C         -0.003 -0.005  0.001   -0.027 -0.027 -0.005    0.001  0.000 -0.001
 H          0.238  0.101 -0.476   -0.007  0.040  0.013    0.001 -0.001 -0.000
 H          0.051  0.810 -0.078   -0.005  0.013 -0.041   -0.000 -0.000  0.001
 H          0.084  0.052  0.142   -0.006 -0.023  0.007    0.000  0.001 -0.000
 O          0.001 -0.000 -0.000    0.027  0.020 -0.041    0.013 -0.051 -0.035
 H          0.002  0.006 -0.007   -0.228 -0.223  0.906   -0.002  0.013  0.006
 H         -0.002  0.055 -0.004    0.004  0.037  0.054    0.001  0.000 -0.001
 H          0.001 -0.002  0.003    0.100  0.139 -0.186   -0.222  0.798  0.557
 TransDip  -0.104 -0.155  0.051   -0.949 -0.557 -0.149    0.336  0.474  0.186

 STANDARD THERMODYNAMIC QUANTITIES AT   298.15 K  AND     1.00 ATM

   This Molecule has  5 Imaginary Frequencies
   Zero point vibrational energy:       62.358 kcal/mol

   Atom    1 Element C  Has Mass   12.00000
   Atom    2 Element C  Has Mass   12.00000
   Atom    3 Element H  Has Mass    1.00783
   Atom    4 Element H  Has Mass    1.00783
   Atom    5 Element H  Has Mass    1.00783
   Atom    6 Element O  Has Mass   15.99491
   Atom    7 Element H  Has Mass    1.00783
   Atom    8 Element H  Has Mass    1.00783
   Atom    9 Element H  Has Mass    1.00783
   Molecular Mass:    46.041890 amu
   Principal axes and moments of inertia in amu*Bohr^2:
                             1           2           3
    Eigenvalues --       37.03935   185.38976   205.13416
          X               0.99982    -0.00649     0.01763
          Y               0.00597     0.99955     0.02955
          Z              -0.01781    -0.02944     0.99941
   Rotational Symmetry Number is   1
   The Molecule is an Asymmetric Top
   Translational Enthalpy:        0.889 kcal/mol
   Rotational Enthalpy:           0.889 kcal/mol
   Vibrational Enthalpy:         62.810 kcal/mol
   gas constant (RT):             0.592 kcal/mol
   Translational Entropy:        37.406  cal/mol.K
   Rotational Entropy:           21.870  cal/mol.K
   Vibrational Entropy:           2.188  cal/mol.K

   Total Enthalpy:               65.180 kcal/mol
   Total Entropy:                61.464  cal/mol.K
Archival summary:
1\1\node018\FREQ\ProcedureUnspecified\6-31G*\126\guest94\MonMar918:26:152020MonMar918:26:152020\0\\#,FREQ,ProcedureUnspecified,6-31G*,\\0,1\O\H,1,0.560268\H,2,0.74,1,95.972\C,1,1.22654,2,100.759,3,-47.3855,0\H,4,1.10306,1,120.954,2,140.892,0\C,4,1.49757,1,123.448,2,-39.1234,0\H,6,1.09244,4,109.103,1,-120.033,0\H,6,1.09244,4,109.103,1,120.16,0\H,6,1.09278,4,110.068,1,0.0658158,0\\\@

 Total job time:  12.67s(wall), 29.35s(cpu) 
 Mon Mar  9 18:26:15 2020

        *************************************************************
        *                                                           *
        *  Thank you very much for using Q-Chem.  Have a nice day.  *
        *                                                           *
        *************************************************************


