[Molden Format]
[Geometries] (XYZ)
9

C        0.090027      -0.531510       0.505280
C        0.018819       0.309413      -0.525316
H        1.003922      -1.067302       0.750543
H       -0.899956       0.838716      -0.765485
H        0.873017       0.497916      -1.173003
O       -0.823468       2.812547       1.803479
H       -0.249473       3.003913       1.047168
H       -0.317979       2.145548       2.292231
H       -0.769665      -0.723388       1.143192
9

C        0.272300      -0.248916       0.924620
C        0.021077       0.299035      -0.252399
H        1.258663      -0.637564       1.201833
H       -0.971471       0.667563      -0.485483
H        0.793117       0.438032      -1.023677
O       -0.940610       2.565208       1.310950
H       -0.509272       2.649781       0.443579
H       -0.296366       1.947074       1.730793
H       -0.541491      -0.462071       1.622637
9

C        0.345065      -0.069174       1.064513
C       -0.181180       0.464512      -0.102508
H        1.395203      -0.325973       1.133519
H       -1.245289       0.632800      -0.256603
H        0.486331       0.648296      -0.943926
O       -0.751309       2.185614       1.213202
H       -0.323928       2.549633       0.404840
H       -0.042914       1.397617       1.498924
H       -0.330052      -0.353782       1.874198
9

C        0.395527       0.068185       1.309400
C       -0.235068       0.572078       0.104520
H        1.433950      -0.242146       1.282795
H       -1.265875       0.347939      -0.156214
H        0.422235       0.842395      -0.719050
O       -0.726177       2.006086       0.709593
H       -0.412774       2.658843       0.052297
H        0.389373       1.111429       1.754749
H       -0.287409      -0.455409       1.986579
9

C        0.494325      -0.081434       1.626502
C       -0.342237       0.813890       0.050609
H        1.484972      -0.467589       1.391822
H       -1.314834       0.389396      -0.187863
H        0.382108       1.005997      -0.744422
O       -0.702040       2.102933       0.548595
H       -0.332213       2.776241      -0.045367
H        0.589888       0.868063       2.144838
H       -0.258927      -0.691001       2.111842
9

C        0.387084      -0.019254       1.448682
C       -0.052844       0.873705       0.293781
H        0.916592      -0.905869       1.079923
H       -0.838545       0.373039      -0.290758
H        0.790944       1.047019      -0.390418
O       -0.576304       2.107890       0.791951
H       -0.061264       2.830540       0.409741
H        1.053722       0.535872       2.119047
H       -0.476723      -0.351788       2.033714
[GEOCONV]
energy
0.0
2.4308343088487163
39.73497681450681
14.975870388574549
19.705285197414923
-20.411608109701774
max-force
0.0
0.0074600407400754075
0.00747113600949806
0.007793855636359783
0.009369008223968148
0.00044222898981005203
max-step
1000.0
1000.0
1000.0
1000.0
1000.0
1000.0
