[Molden Format]
[Geometries] (XYZ)
9

C        0.090027      -0.531510       0.505280
C        0.018819       0.309413      -0.525316
H        1.003922      -1.067302       0.750543
H       -0.899956       0.838716      -0.765485
H        0.873017       0.497916      -1.173003
O       -0.823468       2.812547       1.803479
H       -0.249473       3.003913       1.047168
H       -0.317979       2.145548       2.292231
H       -0.769665      -0.723388       1.143192
9

C        0.097336      -0.465489       0.780200
C        0.023424       0.363443      -0.248402
H        0.991705      -1.057355       1.003987
H       -0.883385       0.927646      -0.435096
H        0.866714       0.544623      -0.930709
O       -0.721723       2.365296       1.761987
H       -0.213008       2.569486       0.958965
H       -0.209878       1.577526       2.061122
H       -0.791065      -0.693753       1.374519
9

C        0.086518      -0.426891       1.070496
C       -0.036378       0.456771       0.013401
H        1.025062      -0.931871       1.270463
H       -0.983766       0.902985      -0.281470
H        0.834732       0.666587      -0.608252
O       -0.624347       1.966481       1.644625
H        0.029723       2.380658       1.038628
H       -0.147704       1.011311       1.847174
H       -0.803864      -0.720261       1.630617
9

C        0.073914      -0.453890       1.377307
C       -0.102785       0.514995       0.334531
H        1.006907      -0.999123       1.462675
H       -1.055813       0.710164      -0.150243
H        0.786897       0.818510      -0.213465
O       -0.494431       1.824602       1.399774
H        0.120056       2.501436       1.049979
H        0.112333       0.458141       2.152010
H       -0.845247      -0.931722       1.731147
9

C        0.115642      -0.547488       1.564527
C       -0.135595       0.881252       0.252979
H        1.038677      -1.098568       1.387848
H       -1.052352       0.746632      -0.318540
H        0.790826       1.117521      -0.277189
O       -0.432154       2.036568       1.039702
H        0.177366       2.746730       0.782287
H        0.260841       0.151140       2.382474
H       -0.827043      -1.068647       1.692923
9

C        0.387084      -0.019254       1.448682
C       -0.052844       0.873705       0.293781
H        0.916592      -0.905869       1.079923
H       -0.838545       0.373039      -0.290758
H        0.790944       1.047019      -0.390418
O       -0.576304       2.107890       0.791951
H       -0.061264       2.830540       0.409741
H        1.053722       0.535872       2.119047
H       -0.476723      -0.351788       2.033714
[GEOCONV]
energy
0.0
2.1543384652904933
33.28925750432245
29.04823885479709
14.944231350862538
-20.411608109701774
max-force
0.0
0.0074600407400754075
0.00747113600949806
0.007793855636359783
0.009369008223968148
0.00044222898981005203
max-step
1000.0
1000.0
1000.0
1000.0
1000.0
1000.0
