[Molden Format]
[Geometries] (XYZ)
9

C       -0.854021      -0.327151      -0.087243
C        0.409504       0.524425      -0.159510
H       -1.753388       0.262243      -0.301640
H       -0.968241      -0.761745       0.914936
H       -0.797989      -1.153309      -0.804177
O        1.585977      -0.244644       0.076720
H        0.346293       1.364169       0.551891
H        0.530378       0.951176      -1.160174
H        1.501488      -0.615165       0.969199
9

C       -0.703397      -0.262452       0.085274
C        0.532153       0.556556      -0.282966
H       -1.632774       0.296284      -0.115396
H       -0.707647      -0.576415       1.146598
H       -0.733944      -1.171666      -0.550607
O        1.537111      -0.434968      -0.059829
H        0.659854       1.440676       0.365947
H        0.551424       0.901947      -1.301537
H        1.095300      -0.745773       0.730505
9

C       -0.578714      -0.258614       0.138540
C        0.623563       0.539217      -0.319315
H       -1.541759       0.264553      -0.044635
H       -0.565115      -0.495047       1.198425
H       -0.616362      -1.186936      -0.464755
O        1.533937      -0.529806      -0.051815
H        0.801611       1.438787       0.311386
H        0.607134       0.864299      -1.339366
H        0.788279      -0.714101       0.603109
9

C       -0.488636      -0.292794       0.175786
C        0.712771       0.517036      -0.346178
H       -1.451878       0.217183       0.028713
H       -0.484102      -0.490012       1.273938
H       -0.578128      -1.216051      -0.391826
O        1.535989      -0.549426      -0.050075
H        0.877310       1.421897       0.282247
H        0.665019       0.847002      -1.410948
H        0.578635      -0.656139       0.504470
9

C       -0.566559      -0.243978       0.114404
C        0.825308       0.363313      -0.309055
H       -1.536331       0.256179      -0.096060
H       -0.531051      -0.358484       1.208826
H       -0.620476      -1.223767      -0.356757
O        1.497911      -0.424700       0.040987
H        0.874409       1.380132       0.241776
H        0.841238       0.628082      -1.396801
H        0.817863      -0.740081       0.657810
9

C       -0.496923      -0.229356       0.217806
C        0.651659       0.496427      -0.404235
H       -1.473705       0.292309       0.149059
H       -0.361750      -0.343935       1.287310
H       -0.604035      -1.206277      -0.265960
O        1.671717      -0.601328      -0.055768
H        0.902868       1.440840       0.099450
H        0.560518       0.688378      -1.458257
H        0.949576      -0.862831       0.532012
9

C       -0.374605      -0.306475       0.267822
C        0.736699       0.492814      -0.410690
H       -1.390240       0.182053       0.234923
H       -0.231237      -0.459126       1.354358
H       -0.517529      -1.265451      -0.258195
O        1.622948      -0.543963      -0.106858
H        0.964194       1.446703       0.115597
H        0.602406       0.722631      -1.483310
H        0.725088      -0.749170       0.447171
9

C       -0.400023      -0.688499       0.135495
C        0.436404       0.510398      -0.300990
H       -1.450013      -0.558779      -0.152945
H       -0.365242      -0.821037       1.225158
H       -0.024630      -1.606955      -0.327691
O        1.827761       0.333336      -0.059886
H        0.066309       1.428019       0.185759
H        0.348263       0.659798      -1.381512
H        1.933275       0.111755       0.879328
[GEOCONV]
energy
0.0
12.522009834821802
42.655263630877016
92.46445712872082
116.03229552780977
31.76950571902853
82.97709287186444
0.028060412674676627
max-force
0.0
0.008553900157789203
0.009504933112047883
0.007568887469495076
0.0071289314902741666
0.00890485193229679
0.008665017068339853
0.0003980399387498189
max-step
1000.0
1000.0
1000.0
1000.0
1000.0
1000.0
1000.0
1000.0
