[Molden Format]
[Geometries] (XYZ)
9

C       -0.854021      -0.327151      -0.087243
C        0.409504       0.524425      -0.159510
H       -1.753388       0.262243      -0.301640
H       -0.968241      -0.761745       0.914936
H       -0.797989      -1.153309      -0.804177
O        1.585977      -0.244644       0.076720
H        0.346293       1.364169       0.551891
H        0.530378       0.951176      -1.160174
H        1.501488      -0.615165       0.969199
9

C       -0.789907      -0.326650      -0.053963
C        0.443238       0.565139      -0.159775
H       -1.711321       0.226089      -0.285363
H       -0.894286      -0.749637       0.959574
H       -0.705849      -1.162212      -0.765191
O        1.583709      -0.258216       0.083545
H        0.391003       1.402466       0.556314
H        0.553646       0.993046      -1.153724
H        1.346143      -0.658171       0.924224
9

C       -0.726051      -0.322778      -0.021490
C        0.479967       0.602203      -0.156141
H       -1.667769       0.194742      -0.264517
H       -0.824838      -0.731273       1.001302
H       -0.618212      -1.164044      -0.727391
O        1.584706      -0.267728       0.095097
H        0.434285       1.437652       0.565179
H        0.580261       1.032846      -1.144881
H        1.193582      -0.679402       0.870338
9

C       -0.591888      -0.267763       0.018537
C        0.596579       0.682157      -0.138864
H       -1.552252       0.215793      -0.229444
H       -0.687627      -0.659969       1.052290
H       -0.466983      -1.111975      -0.680447
O        1.654409      -0.216806       0.121185
H        0.546591       1.516972       0.588888
H        0.686776       1.119551      -1.127094
H        1.117250      -0.632134       0.815659
9

C       -0.546229      -0.396371       0.034015
C        0.642249       0.549260      -0.112520
H       -1.524551       0.070632      -0.204393
H       -0.667328      -0.763152       1.085955
H       -0.434516      -1.250095      -0.648538
O        1.727260      -0.309512       0.162692
H        0.554783       1.390608       0.604651
H        0.751324       0.979762      -1.117379
H        1.179658      -0.845318       0.791761
9

C       -0.559891      -0.503170       0.028167
C        0.647421       0.416811      -0.097233
H       -1.512109       0.003654      -0.215725
H       -0.692575      -0.882284       1.070810
H       -0.462955      -1.354824      -0.658070
O        1.776614      -0.411993       0.152788
H        0.566468       1.256151       0.617900
H        0.757237       0.847072      -1.100610
H        1.370793      -0.940875       0.877255
9

C       -0.595281      -0.594132       0.002082
C        0.637476       0.294670      -0.099626
H       -1.518423      -0.048198      -0.248798
H       -0.735625      -0.982906       1.031444
H       -0.511052      -1.444004      -0.685601
O        1.797132      -0.497468       0.129748
H        0.562538       1.134044       0.613953
H        0.744868       0.725791      -1.101478
H        1.538839      -1.003829       0.924058
9

C       -0.400023      -0.688499       0.135495
C        0.436404       0.510398      -0.300990
H       -1.450013      -0.558779      -0.152945
H       -0.365242      -0.821037       1.225158
H       -0.024630      -1.606955      -0.327691
O        1.827761       0.333336      -0.059886
H        0.066309       1.428019       0.185759
H        0.348263       0.659798      -1.381512
H        1.933275       0.111755       0.879328
[GEOCONV]
energy
0.0
1.7531910757388687
6.331809419265483
14.243674468743848
11.694992182063288
5.008356629114132
1.3557085692737019
0.028060412674676627
max-force
0.0
0.008553900157789203
0.009504933112047883
0.007568887469495076
0.0071289314902741666
0.00890485193229679
0.008665017068339853
0.0003980399387498189
max-step
1000.0
1000.0
1000.0
1000.0
1000.0
1000.0
1000.0
1000.0
