[Molden Format]
[Geometries] (XYZ)
9

C        0.090027      -0.531510       0.505280
C        0.018819       0.309413      -0.525316
H        1.003922      -1.067302       0.750543
H       -0.899956       0.838716      -0.765485
H        0.873017       0.497916      -1.173003
O       -0.823468       2.812547       1.803479
H       -0.249473       3.003913       1.047168
H       -0.317979       2.145548       2.292231
H       -0.769665      -0.723388       1.143192
9

C        0.037923      -0.419227       0.713711
C       -0.135647       0.484569      -0.250069
H        1.029662      -0.719037       1.041855
H       -1.109179       0.715315      -0.670423
H        0.710569       0.986313      -0.710772
O       -0.669274       2.616412       1.519743
H        0.133872       3.153527       1.545248
H       -0.362159       1.701872       1.638912
H       -0.792165      -1.002725       1.107056
9

C        0.003007      -0.179078       1.049858
C       -0.174911       0.757583       0.000795
H        1.007656      -0.545290       1.248941
H       -1.105985       0.831163      -0.553261
H        0.685530       1.181290      -0.511526
O       -0.560497       2.171330       1.192079
H        0.158744       2.831194       1.236434
H       -0.231075       1.075484       1.707530
H       -0.803375      -0.878999       1.255687
9

C       -0.010394      -0.065205       1.238519
C       -0.273160       0.954273       0.119492
H        1.007930      -0.460610       1.298008
H       -1.202654       0.832109      -0.441016
H        0.578679       1.224203      -0.507586
O       -0.600744       2.169769       0.910355
H        0.092032       2.839107       0.806344
H       -0.115179       0.726666       1.973121
H       -0.794367      -0.805269       1.388921
9

C        0.103883      -0.163157       1.254979
C       -0.075834       0.976987       0.243612
H        0.975567      -0.788573       1.030616
H       -0.820982       0.709800      -0.518334
H        0.867208       1.188357      -0.277536
O       -0.543172       2.143997       0.936545
H        0.061365       2.873044       0.744150
H        0.248246       0.309464       2.228936
H       -0.780025      -0.805214       1.318112
9

C        0.387084      -0.019254       1.448682
C       -0.052844       0.873705       0.293781
H        0.916592      -0.905869       1.079923
H       -0.838545       0.373039      -0.290758
H        0.790944       1.047019      -0.390418
O       -0.576304       2.107890       0.791951
H       -0.061264       2.830540       0.409741
H        1.053722       0.535872       2.119047
H       -0.476723      -0.351788       2.033714
[GEOCONV]
energy
0.0
0.8575816788943484
49.93244451675855
-3.3676041360013187
-17.871391380147543
-20.411608109701774
max-force
0.0
0.0011280349368101555
0.00047166676905973813
0.005082039883197663
0.0007175858262360184
0.00044222898981005203
max-step
1000.0
1000.0
1000.0
1000.0
1000.0
1000.0
