[Molden Format]
[Geometries] (XYZ)
9

C       -0.854021      -0.327151      -0.087243
C        0.409504       0.524425      -0.159510
H       -1.753388       0.262243      -0.301640
H       -0.968241      -0.761745       0.914936
H       -0.797989      -1.153309      -0.804177
O        1.585977      -0.244644       0.076720
H        0.346293       1.364169       0.551891
H        0.530378       0.951176      -1.160174
H        1.501488      -0.615165       0.969199
9

C       -0.784154      -0.334856      -0.014281
C        0.486263       0.502181      -0.131530
H       -1.676200       0.252984      -0.259461
H       -0.910974      -0.705522       1.012582
H       -0.738331      -1.197890      -0.686128
O        1.665039      -0.255873       0.112594
H        0.431170       1.371560       0.545391
H        0.594743       0.892097      -1.148483
H        1.532561      -0.719740       0.953881
9

C       -0.718267      -0.350652       0.020369
C        0.551857       0.484007      -0.114412
H       -1.607423       0.236587      -0.237405
H       -0.847124      -0.701162       1.053503
H       -0.675509      -1.226881      -0.634863
O        1.736369      -0.262111       0.140933
H        0.494149       1.366235       0.544601
H        0.656671       0.853214      -1.139699
H        1.593953      -0.766564       0.955977
9

C       -0.813363      -0.394848       0.002213
C        0.439642       0.462041      -0.135572
H       -1.726910       0.169918      -0.206963
H       -0.895167      -0.768410       1.032296
H       -0.770776      -1.259128      -0.671023
O        1.621738      -0.305271       0.083689
H        0.395399       1.316607       0.559749
H        0.533473       0.871910      -1.146503
H        1.482159      -0.800356       0.904033
9

C       -0.684673      -0.348149      -0.056170
C        0.580610       0.497034      -0.144403
H       -1.578060       0.238227      -0.300727
H       -0.821659      -0.733448       0.962532
H       -0.624792      -1.202834      -0.738142
O        1.762289      -0.260737       0.106289
H        0.512703       1.352678       0.547983
H        0.701470       0.901753      -1.155207
H        1.605940      -0.776104       0.912032
9

C       -0.650037      -0.393508      -0.045234
C        0.617464       0.449281      -0.140116
H       -1.540093       0.194600      -0.297270
H       -0.787295      -0.777962       0.974094
H       -0.591722      -1.250111      -0.725023
O        1.801676      -0.305848       0.093782
H        0.554406       1.307301       0.550450
H        0.727946       0.856065      -1.151246
H        1.674937      -0.793597       0.922045
9

C       -0.639531      -0.437094      -0.046084
C        0.629694       0.404144      -0.140299
H       -1.526142       0.152884      -0.303841
H       -0.780146      -0.818402       0.973991
H       -0.581246      -1.295706      -0.723695
O        1.813464      -0.350827       0.091042
H        0.567359       1.263022       0.549425
H        0.740467       0.811381      -1.151093
H        1.697990      -0.825441       0.928401
9

C       -0.400023      -0.688499       0.135495
C        0.436404       0.510398      -0.300990
H       -1.450013      -0.558779      -0.152945
H       -0.365242      -0.821037       1.225158
H       -0.024630      -1.606955      -0.327691
O        1.827761       0.333336      -0.059886
H        0.066309       1.428019       0.185759
H        0.348263       0.659798      -1.381512
H        1.933275       0.111755       0.879328
[GEOCONV]
energy
0.0
0.07428191023063846
0.16710731529747136
0.22790107254695613
0.15209540365322027
0.07537901141040493
0.05124371065176092
0.028060412674676627
max-force
0.0
0.0004324161911874068
0.00031440068069406253
0.0010338077218905476
0.0005195538232717334
0.0002764877683109479
0.00030771282721645833
0.0003980399387498189
max-step
1000.0
1000.0
1000.0
1000.0
1000.0
1000.0
1000.0
1000.0
