                  Welcome to Q-Chem
     A Quantum Leap Into The Future Of Chemistry


 Q-Chem 5.2 (devel), Q-Chem, Inc., Pleasanton, CA (2019)

 Yihan Shao,  Zhengting Gan,  E. Epifanovsky,  A. T. B. Gilbert,  M. Wormit,  
 J. Kussmann,  A. W. Lange,  A. Behn,  Jia Deng,  Xintian Feng,  D. Ghosh,  
 M. Goldey,  P. R. Horn,  L. D. Jacobson,  I. Kaliman,  T. Kus,  A. Landau,  
 Jie Liu,  E. I. Proynov,  R. M. Richard,  R. P. Steele,  E. J. Sundstrom,  
 H. L. Woodcock III,  P. M. Zimmerman,  D. Zuev,  B. Albrecht,  E. Alguire,  
 S. A. Baeppler,  D. Barton,  Z. Benda,  Y. A. Bernard,  E. J. Berquist,  
 K. B. Bravaya,  H. Burton,  D. Casanova,  Chun-Min Chang,  Yunqing Chen,  
 A. Chien,  K. D. Closser,  M. P. Coons,  S. Coriani,  S. Dasgupta,  
 A. L. Dempwolff,  M. Diedenhofen,  Hainam Do,  R. G. Edgar,  Po-Tung Fang,  
 S. Faraji,  S. Fatehi,  Qingguo Feng,  K. D. Fenk,  J. Fosso-Tande,  
 J. Gayvert,  Qinghui Ge,  A. Ghysels,  G. Gidofalvi,  J. Gomes,  
 J. Gonthier,  A. Gunina,  D. Hait,  M. W. D. Hanson-Heine,  
 P. H. P. Harbach,  A. W. Hauser,  M. F. Herbst,  J. E. Herr,  
 E. G. Hohenstein,  Z. C. Holden,  Kerwin Hui,  B. C. Huynh,  T.-C. Jagau,  
 Hyunjun Ji,  B. Kaduk,  K. Khistyaev,  Jaehoon Kim,  P. Klunzinger,  K. Koh,  
 D. Kosenkov,  L. Koulias,  T. Kowalczyk,  C. M. Krauter,  A. Kunitsa,  
 Ka Un Lao,  A. Laurent,  K. V. Lawler,  Joonho Lee,  D. Lefrancois,  
 S. Lehtola,  D. S. Levine,  Yi-Pei Li,  You-Sheng Lin,  Fenglai Liu,  
 E. Livshits,  A. Luenser,  P. Manohar,  E. Mansoor,  S. F. Manzer,  
 Shan-Ping Mao,  Yuezhi Mao,  N. Mardirossian,  A. V. Marenich,  
 T. Markovich,  L. A. Martinez-Martinez,  S. A. Maurer,  N. J. Mayhall,  
 S. C. McKenzie,  J.-M. Mewes,  P. Morgante,  A. F. Morrison,  
 J. W. Mullinax,  K. Nanda,  T. S. Nguyen-Beck,  R. Olivares-Amaya,  
 J. A. Parkhill,  Zheng Pei,  T. M. Perrine,  F. Plasser,  P. Pokhilko,  
 S. Prager,  A. Prociuk,  E. Ramos,  D. R. Rehn,  F. Rob,  M. Scheurer,  
 M. Schneider,  N. Sergueev,  S. M. Sharada,  S. Sharma,  D. W. Small,  
 T. Stauch,  T. Stein,  Yu-Chuan Su,  A. J. W. Thom,  A. Tkatchenko,  
 T. Tsuchimochi,  N. M. Tubman,  L. Vogt,  M. L. Vidal,  O. Vydrov,  
 M. A. Watson,  J. Wenzel,  M. de Wergifosse,  T. A. Wesolowski,  A. White,  
 J. Witte,  A. Yamada,  Jun Yang,  K. Yao,  S. Yeganeh,  S. R. Yost,  
 Zhi-Qiang You,  A. Zech,  Igor Ying Zhang,  Xing Zhang,  Yan Zhao,  
 Ying Zhu,  B. R. Brooks,  G. K. L. Chan,  C. J. Cramer,  M. S. Gordon,  
 W. J. Hehre,  A. Klamt,  M. W. Schmidt,  C. D. Sherrill,  D. G. Truhlar,  
 A. Aspuru-Guzik,  R. Baer,  A. T. Bell,  N. A. Besley,  Jeng-Da Chai,  
 A. E. DePrince, III,  R. A. DiStasio Jr.,  A. Dreuw,  B. D. Dunietz,  
 T. R. Furlani,  Chao-Ping Hsu,  Yousung Jung,  Jing Kong,  D. S. Lambrecht,  
 WanZhen Liang,  C. Ochsenfeld,  V. A. Rassolov,  L. V. Slipchenko,  
 J. E. Subotnik,  T. Van Voorhis,  J. M. Herbert,  A. I. Krylov,  
 P. M. W. Gill,  M. Head-Gordon

 Contributors to earlier versions of Q-Chem not listed above: 
 R. D. Adamson,  B. Austin,  J. Baker,  G. J. O. Beran,  K. Brandhorst,  
 S. T. Brown,  E. F. C. Byrd,  A. K. Chakraborty,  C.-L. Cheng,  
 Siu Hung Chien,  D. M. Chipman,  D. L. Crittenden,  H. Dachsel,  
 R. J. Doerksen,  A. D. Dutoi,  L. Fusti-Molnar,  W. A. Goddard III,  
 A. Golubeva-Zadorozhnaya,  S. R. Gwaltney,  G. Hawkins,  A. Heyden,  
 S. Hirata,  G. Kedziora,  F. J. Keil,  C. Kelley,  Jihan Kim,  R. A. King,  
 R. Z. Khaliullin,  P. P. Korambath,  W. Kurlancheek,  A. M. Lee,  M. S. Lee,  
 S. V. Levchenko,  Ching Yeh Lin,  D. Liotard,  R. C. Lochan,  I. Lotan,  
 P. E. Maslen,  N. Nair,  D. P. O'Neill,  D. Neuhauser,  E. Neuscamman,  
 C. M. Oana,  R. Olson,  B. Peters,  R. Peverati,  P. A. Pieniazek,  
 Y. M. Rhee,  J. Ritchie,  M. A. Rohrdanz,  E. Rosta,  N. J. Russ,  
 H. F. Schaefer III,  N. E. Schultz,  N. Shenvi,  A. C. Simmonett,  A. Sodt,  
 D. Stuck,  K. S. Thanthiriwatte,  V. Vanovschi,  Tao Wang,  A. Warshel,  
 C. F. Williams,  Q. Wu,  X. Xu,  W. Zhang

 Please cite Q-Chem as follows:
 Y. Shao et al., Mol. Phys. 113, 184-215 (2015)
 DOI: 10.1080/00268976.2014.952696

 Q-Chem 5.2.1 for Intel X86 EM64T Linux

 Parts of Q-Chem use Armadillo 8.300.2 (Tropical Shenanigans).
 http://arma.sourceforge.net/

 Q-Chem begins on Sun Mar 22 17:01:27 2020  

Host: node018
0

     Scratch files written to /tmp/ypli/106199.h81/qchem9191//
NAlpha2: 26
NElect   26
Mult     1

Checking the input file for inconsistencies... 	...done.

--------------------------------------------------------------
User input:
--------------------------------------------------------------
$rem
jobtype = freq
exchange = b3lyp
basis = 6-31g*
$end

$molecule
0 1
C      0.03507388   -0.39261090    0.53917380
C     -0.03507435    0.39261092   -0.53917374
H      0.98710652   -0.77880134    0.88957858
H     -0.98710634    0.77880204   -0.88957956
H      0.85815414    0.66465944   -1.09273059
O     -0.74898280    2.39880873    1.62415795
H     -0.09000339    2.89456536    1.11530383
H     -0.23576919    1.99247722    2.33862803
H     -0.85815384   -0.66466019    1.09273153
$end
--------------------------------------------------------------
 ----------------------------------------------------------------
             Standard Nuclear Orientation (Angstroms)
    I     Atom           X                Y                Z
 ----------------------------------------------------------------
    1      C       1.1815015193    -0.6548149557    -0.0142313833
    2      C       1.1128919107     0.6790626187    -0.0340009511
    3      H       1.5258307431    -1.1847093427     0.8683455469
    4      H       0.7685628501     1.2089582308    -0.9165772187
    5      H       1.3997068128     1.2673366177     0.8320034559
    6      O      -1.8444289600    -0.0040829483    -0.0794358548
    7      H      -1.8171443427     0.6760991521     0.6101791641
    8      H      -1.7825719063    -0.8374169165     0.4111650045
    9      H       0.8946869434    -1.2430901330    -0.8802351080
 ----------------------------------------------------------------
 Molecular Point Group                 C1    NOp =  1
 Largest Abelian Subgroup              C1    NOp =  1
 Nuclear Repulsion Energy =          69.33985023 hartrees
 There are       13 alpha and       13 beta electrons
 Requested basis set is 6-31G(d)
 There are 24 shells and 57 basis functions

 Total QAlloc Memory Limit   2000 MB
 Mega-Array Size       188 MB
 MEM_STATIC part       192 MB

                       Distance Matrix (Angstroms)
             C (  1)   C (  2)   H (  3)   H (  4)   H (  5)   O (  6)
   C (  2)  1.335787
   H (  3)  1.085492  2.111491
   H (  4)  2.111492  1.085492  3.080430
   H (  5)  2.111491  1.085492  2.455556  1.859915
   O (  6)  3.095797  3.035539  3.694701  3.000000  3.601617
   H (  7)  3.339625  3.000015  3.834676  3.049722  3.278246  0.969000
   H (  8)  3.000006  3.298726  3.357850  3.529708  3.838488  0.969000
   H (  9)  1.085492  2.111492  1.859915  2.455559  3.080430  3.111137
             H (  7)   H (  8)
   H (  8)  1.526936
   H (  9)  3.641243  3.000000
 
 A cutoff of  1.0D-11 yielded    294 shell pairs
 There are      1722 function pairs
 Smallest overlap matrix eigenvalue = 7.59E-03
 Guess from superposition of atomic densities
 Warning:  Energy on first SCF cycle will be non-variational
 SAD guess density has 26.000000 electrons

 -----------------------------------------------------------------------
  General SCF calculation program by
  Eric Jon Sundstrom, Paul Horn, Yuezhi Mao, Dmitri Zuev, Alec White,
  David Stuck, Shaama M.S., Shane Yost, Joonho Lee, David Small,
  Daniel Levine, Susi Lehtola, Hugh Burton, Evgeny Epifanovsky,
  Bang C. Huynh
 -----------------------------------------------------------------------
 Exchange:     0.2000 Hartree-Fock + 0.0800 Slater + 0.7200 B88
 Correlation:  0.1900 VWN1RPA + 0.8100 LYP
 Using SG-1 standard quadrature grid
 using 2 threads for integral computing
 -------------------------------------------------------
 OpenMP Integral computing Module                
 Release: version 2.0, May 2017, Q-Chem Inc. Pleasanton 
 -------------------------------------------------------
 A restricted SCF calculation will be
 performed using DIIS
 SCF converges when DIIS error is below 1.0e-08
 ---------------------------------------
  Cycle       Energy         DIIS error
 ---------------------------------------
    1    -155.1310310893      9.52e-02  
    2    -154.8711981938      1.85e-02  
    3    -154.8321419436      2.23e-02  
    4    -154.9929972259      1.94e-03  
    5    -154.9943041304      4.74e-04  
    6    -154.9943827353      8.87e-05  
    7    -154.9943840311      6.67e-05  
    8    -154.9943859419      3.11e-06  
    9    -154.9943859452      3.00e-07  
   10    -154.9943859452      6.79e-08  
   11    -154.9943859452      3.18e-09  Convergence criterion met
 ---------------------------------------
 SCF time:   CPU 4.32s  wall 3.00s 
 SCF   energy in the final basis set =     -154.9943859452
 Total energy in the final basis set =     -154.9943859452
 
 --------------------------------------------------------------
 
                    Orbital Energies (a.u.)
 --------------------------------------------------------------
 
 Alpha MOs
 -- Occupied --
-19.1310 -10.1787 -10.1778  -0.9909  -0.7493  -0.5728  -0.5113  -0.4625
 -0.4083  -0.3662  -0.3513  -0.2954  -0.2485
 -- Virtual --
  0.0202   0.0701   0.1266   0.1462   0.1529   0.1682   0.2472   0.3318
  0.4831   0.5581   0.5743   0.6385   0.6395   0.6936   0.8121   0.8541
  0.8727   0.8779   0.8978   0.9359   0.9458   1.0448   1.0621   1.1215
  1.2395   1.2618   1.4693   1.5546   1.7395   1.7651   1.7879   1.8351
  1.9050   1.9980   2.1075   2.2889   2.3051   2.3885   2.6011   2.6887
  2.7096   3.5762   4.1340   4.2605
 --------------------------------------------------------------
 
          Ground-State Mulliken Net Atomic Charges

     Atom                 Charge (a.u.)
  ----------------------------------------
      1 C                    -0.288238
      2 C                    -0.275279
      3 H                     0.132719
      4 H                     0.151668
      5 H                     0.132384
      6 O                    -0.765808
      7 H                     0.382732
      8 H                     0.382992
      9 H                     0.146830
  ----------------------------------------
  Sum of atomic charges =     0.000000

 -----------------------------------------------------------------
                    Cartesian Multipole Moments
 -----------------------------------------------------------------
    Charge (ESU x 10^10)
                -0.0000
    Dipole Moment (Debye)
         X       0.1078      Y      -0.2158      Z       1.9099
       Tot       1.9250
    Quadrupole Moments (Debye-Ang)
        XX     -22.6776     XY       0.3400     YY     -16.5334
        XZ      -2.8834     YZ       0.2008     ZZ     -18.2515
    Octopole Moments (Debye-Ang^2)
       XXX      -9.1513    XXY      -0.8810    XYY      -6.0368
       YYY      -0.5491    XXZ       8.9996    XYZ      -0.2807
       YYZ       1.0270    XZZ      -3.5904    YZZ       0.1727
       ZZZ       1.1195
    Hexadecapole Moments (Debye-Ang^3)
      XXXX    -289.7898   XXXY       0.7583   XXYY     -47.7304
      XYYY       1.1661   YYYY     -73.2200   XXXZ      -9.6220
      XXYZ       0.6699   XYYZ      -1.2769   YYYZ       0.2321
      XXZZ     -45.6687   XYZZ      -0.3678   YYZZ     -15.2119
      XZZZ      -1.5525   YZZZ       0.2560   ZZZZ     -31.5894
 -----------------------------------------------------------------
 Calculating MO derivatives via CPSCF
    1     0    30    0.0673045  
    2     0    30    0.0055391  
    3     0    30    0.0004994  
    4    21     9    0.0000175  
    5    30     0    0.0000003  Converged
 Time for AOints: 0.5 s (CPU) 0.8 s (wall)
 ------------------------------------------------------------------------------
                     AOints        : Timing summary (seconds)
 ------------------------------------------------------------------------------
     job step          cpu (% of tot)      sys (% of tot)     wall (% of tot)
 ------------------------------------------------------------------------------
  AOints            0.4847E+00 ( 5.2)   0.6000E-05 (11.3)   0.8166E+00 (10.9)
 ------------------------------------------------------------------------------
   Grand Totals     0.9335E+01          0.5300E-04          0.7522E+01
 ------------------------------------------------------------------------------
 Polarizability Matrix (a.u.)
            1           2           3
    1 -16.3556890   0.9395514  -3.2460774
    2   0.9395514 -36.4781917  -0.2792626
    3  -3.2460774  -0.2792626 -23.9598880
 Calculating analytic Hessian of the SCF energy
 
 Direct stationary perturbation theory relativistic correction:
 
 rels  =       0.047236317963
 relv  =      -0.192035062142
 rel2e =       0.066280828558
 E_rel =      -0.078517915621
 
 Hessian of the SCF Energy
            1           2           3           4           5           6
    1   0.1724817  -0.0316083   0.1762488  -0.0518575   0.0264927  -0.0219870
    2  -0.0316083   0.8555670   0.0075764   0.0258853  -0.5701542   0.0057064
    3   0.1762488   0.0075764   0.5915121  -0.0220162   0.0057833  -0.1092492
    4  -0.0518575   0.0258853  -0.0220162   0.1735013  -0.0342110   0.1759736
    5   0.0264927  -0.5701542   0.0057833  -0.0342110   0.8565350   0.0022993
    6  -0.0219870   0.0057064  -0.1092492   0.1759736   0.0022993   0.5927608
    7  -0.0654103   0.0452581  -0.0831574   0.0043912  -0.0002314  -0.0017782
    8   0.0429310  -0.1216120   0.1073375   0.0115741  -0.0127104   0.0292036
    9  -0.0827663   0.1112449  -0.2481415  -0.0006847  -0.0011632   0.0032667
   10   0.0036734   0.0004622  -0.0015799  -0.0672903   0.0461129  -0.0838004
   11   0.0112242  -0.0123688   0.0285008   0.0439373  -0.1226217   0.1084961
   12  -0.0003292  -0.0012125   0.0037737  -0.0829410   0.1128335  -0.2501588
   13   0.0054068   0.0019463   0.0010181  -0.0574066  -0.0405662  -0.0700808
   14  -0.0096457  -0.0144001  -0.0286032  -0.0382409  -0.1370816  -0.1186622
   15  -0.0004927   0.0017363   0.0040937  -0.0694298  -0.1225594  -0.2415910
   16  -0.0070544  -0.0031396   0.0005297  -0.0070687   0.0030549   0.0006538
   17   0.0000347   0.0005688  -0.0011058   0.0003967   0.0001805   0.0012962
   18  -0.0012730  -0.0013372   0.0003717  -0.0012141   0.0012919   0.0004951
   19   0.0007204   0.0008381  -0.0000078   0.0001632  -0.0012445  -0.0004512
   20  -0.0003360  -0.0003409   0.0003049  -0.0002807   0.0003664   0.0000463
   21   0.0001348   0.0000940  -0.0002082   0.0001868   0.0001473   0.0004980
   22   0.0001632   0.0014503  -0.0006781   0.0010008  -0.0009226   0.0002699
   23   0.0002185   0.0004092   0.0000073   0.0002331  -0.0001549  -0.0002989
   24   0.0002456   0.0001662   0.0006475   0.0002162  -0.0001825  -0.0004958
   25  -0.0581233  -0.0410924  -0.0703572   0.0045666   0.0015152   0.0012002
   26  -0.0393111  -0.1376689  -0.1198012  -0.0092940  -0.0143592  -0.0280867
   27  -0.0697810  -0.1239745  -0.2427997  -0.0000909   0.0015500   0.0044740
            7           8           9          10          11          12
    1  -0.0654103   0.0429310  -0.0827663   0.0036734   0.0112242  -0.0003292
    2   0.0452581  -0.1216120   0.1112449   0.0004622  -0.0123688  -0.0012125
    3  -0.0831574   0.1073375  -0.2481415  -0.0015799   0.0285008   0.0037737
    4   0.0043912   0.0115741  -0.0006847  -0.0672903   0.0439373  -0.0829410
    5  -0.0002314  -0.0127104  -0.0011632   0.0461129  -0.1226217   0.1128335
    6  -0.0017782   0.0292036   0.0032667  -0.0838004   0.1084961  -0.2501588
    7   0.0575904  -0.0494242   0.0902117   0.0116042   0.0004837  -0.0037383
    8  -0.0494242   0.1278819  -0.1224622   0.0004317  -0.0052952  -0.0008319
    9   0.0902117  -0.1224622   0.2554036  -0.0036296  -0.0005709   0.0029712
   10   0.0116042   0.0004317  -0.0036296   0.0589555  -0.0503005   0.0907013
   11   0.0004837  -0.0052952  -0.0005709  -0.0503005   0.1286032  -0.1223990
   12  -0.0037383  -0.0008319   0.0029712   0.0907013  -0.1223990   0.2569750
   13  -0.0074011  -0.0005002   0.0031807  -0.0000065  -0.0053955  -0.0062237
   14  -0.0002842   0.0013613   0.0003069   0.0038120   0.0102514   0.0119612
   15   0.0031852  -0.0000187   0.0003183  -0.0048354  -0.0138483  -0.0137296
   16   0.0000248   0.0001429  -0.0002208   0.0003893   0.0003443  -0.0007740
   17  -0.0000820   0.0001693   0.0001184   0.0000015   0.0001420  -0.0006853
   18   0.0003629  -0.0000469   0.0001287   0.0001686  -0.0002646   0.0003016
   19  -0.0001335  -0.0000651   0.0000099  -0.0002333  -0.0000542   0.0003927
   20   0.0001567  -0.0000848   0.0000211  -0.0000078   0.0000511   0.0001793
   21   0.0000176   0.0001430  -0.0000057   0.0001602   0.0000186  -0.0004284
   22  -0.0004050   0.0000425   0.0000218  -0.0000265   0.0001232  -0.0001853
   23  -0.0000069   0.0000501   0.0000364  -0.0000302  -0.0000421  -0.0000178
   24  -0.0001545  -0.0000117  -0.0001372  -0.0002009  -0.0000381   0.0001044
   25  -0.0002609  -0.0051327  -0.0061227  -0.0070658  -0.0003625   0.0030975
   26   0.0041301   0.0102398   0.0124687  -0.0004817   0.0012802   0.0001725
   27  -0.0049490  -0.0133127  -0.0138041   0.0030161   0.0001054   0.0001908
           13          14          15          16          17          18
    1   0.0054068  -0.0096457  -0.0004927  -0.0070544   0.0000347  -0.0012730
    2   0.0019463  -0.0144001   0.0017363  -0.0031396   0.0005688  -0.0013372
    3   0.0010181  -0.0286032   0.0040937   0.0005297  -0.0011058   0.0003717
    4  -0.0574066  -0.0382409  -0.0694298  -0.0070687   0.0003967  -0.0012141
    5  -0.0405662  -0.1370816  -0.1225594   0.0030549   0.0001805   0.0012919
    6  -0.0700808  -0.1186622  -0.2415910   0.0006538   0.0012962   0.0004951
    7  -0.0074011  -0.0002842   0.0031852   0.0000248  -0.0000820   0.0003629
    8  -0.0005002   0.0013613  -0.0000187   0.0001429   0.0001693  -0.0000469
    9   0.0031807   0.0003069   0.0003183  -0.0002208   0.0001184   0.0001287
   10  -0.0000065   0.0038120  -0.0048354   0.0003893   0.0000015   0.0001686
   11  -0.0053955   0.0102514  -0.0138483   0.0003443   0.0001420  -0.0002646
   12  -0.0062237   0.0119612  -0.0137296  -0.0007740  -0.0006853   0.0003016
   13   0.0482487   0.0433758   0.0755550   0.0000946   0.0002107   0.0003552
   14   0.0433758   0.1449585   0.1344351  -0.0001209   0.0001424   0.0000920
   15   0.0755550   0.1344351   0.2479195  -0.0002605  -0.0001019   0.0001037
   16   0.0000946  -0.0001209  -0.0002605   0.0151465  -0.0201061   0.0337771
   17   0.0002107   0.0001424  -0.0001019  -0.0201061   0.6449863   0.0268892
   18   0.0003552   0.0000920   0.0001037   0.0337771   0.0268892   0.4514337
   19  -0.0005134  -0.0001176  -0.0000314  -0.0003348  -0.0103548  -0.0143832
   20  -0.0000777   0.0000526  -0.0000763  -0.0061744  -0.2673890  -0.1924709
   21  -0.0000203  -0.0000343  -0.0000336  -0.0127904  -0.2598783  -0.2836415
   22  -0.0000596   0.0000967   0.0000176  -0.0018795   0.0302582  -0.0177429
   23  -0.0001181  -0.0000831  -0.0000089   0.0262757  -0.3790496   0.1654984
   24  -0.0000026  -0.0001572   0.0000041  -0.0202596   0.2329028  -0.1695016
   25   0.0116370   0.0011248  -0.0037080   0.0006822  -0.0003589  -0.0000506
   26   0.0011249  -0.0052013   0.0004421  -0.0002768   0.0002493   0.0003480
   27  -0.0037816   0.0006617   0.0029149  -0.0006552   0.0005646   0.0003085
           19          20          21          22          23          24
    1   0.0007204  -0.0003360   0.0001348   0.0001632   0.0002185   0.0002456
    2   0.0008381  -0.0003409   0.0000940   0.0014503   0.0004092   0.0001662
    3  -0.0000078   0.0003049  -0.0002082  -0.0006781   0.0000073   0.0006475
    4   0.0001632  -0.0002807   0.0001868   0.0010008   0.0002331   0.0002162
    5  -0.0012445   0.0003664   0.0001473  -0.0009226  -0.0001549  -0.0001825
    6  -0.0004512   0.0000463   0.0004980   0.0002699  -0.0002989  -0.0004958
    7  -0.0001335   0.0001567   0.0000176  -0.0004050  -0.0000069  -0.0001545
    8  -0.0000651  -0.0000848   0.0001430   0.0000425   0.0000501  -0.0000117
    9   0.0000099   0.0000211  -0.0000057   0.0000218   0.0000364  -0.0001372
   10  -0.0002333  -0.0000078   0.0001602  -0.0000265  -0.0000302  -0.0002009
   11  -0.0000542   0.0000511   0.0000186   0.0001232  -0.0000421  -0.0000381
   12   0.0003927   0.0001793  -0.0004284  -0.0001853  -0.0000178   0.0001044
   13  -0.0005134  -0.0000777  -0.0000203  -0.0000596  -0.0001181  -0.0000026
   14  -0.0001176   0.0000526  -0.0000343   0.0000967  -0.0000831  -0.0001572
   15  -0.0000314  -0.0000763  -0.0000336   0.0000176  -0.0000089   0.0000041
   16  -0.0003348  -0.0061744  -0.0127904  -0.0018795   0.0262757  -0.0202596
   17  -0.0103548  -0.2673890  -0.2598783   0.0302582  -0.3790496   0.2329028
   18  -0.0143832  -0.1924709  -0.2836415  -0.0177429   0.1654984  -0.1695016
   19   0.0000804   0.0083410   0.0126682   0.0001923   0.0028610   0.0019765
   20   0.0083410   0.2976819   0.2314263  -0.0016934  -0.0302814  -0.0394343
   21   0.0126682   0.2314263   0.2714358  -0.0001715   0.0280140   0.0123322
   22   0.0001923  -0.0016934  -0.0001715   0.0014506  -0.0294810   0.0179350
   23   0.0028610  -0.0302814   0.0280140  -0.0294810   0.4091076  -0.1931174
   24   0.0019765  -0.0394343   0.0123322   0.0179350  -0.1931174   0.1574950
   25   0.0000587   0.0000723  -0.0001853  -0.0004363   0.0000480   0.0002443
   26  -0.0002039  -0.0000559   0.0000694   0.0001262   0.0000442  -0.0001279
   27  -0.0001737   0.0000035   0.0000514   0.0005335  -0.0001132  -0.0004487
           25          26          27
    1  -0.0581233  -0.0393111  -0.0697810
    2  -0.0410924  -0.1376689  -0.1239745
    3  -0.0703572  -0.1198012  -0.2427997
    4   0.0045666  -0.0092940  -0.0000909
    5   0.0015152  -0.0143592   0.0015500
    6   0.0012002  -0.0280867   0.0044740
    7  -0.0002609   0.0041301  -0.0049490
    8  -0.0051327   0.0102398  -0.0133127
    9  -0.0061227   0.0124687  -0.0138041
   10  -0.0070658  -0.0004817   0.0030161
   11  -0.0003625   0.0012802   0.0001054
   12   0.0030975   0.0001725   0.0001908
   13   0.0116370   0.0011249  -0.0037816
   14   0.0011248  -0.0052013   0.0006617
   15  -0.0037080   0.0004421   0.0029149
   16   0.0006822  -0.0002768  -0.0006552
   17  -0.0003589   0.0002493   0.0005646
   18  -0.0000506   0.0003480   0.0003085
   19   0.0000587  -0.0002039  -0.0001737
   20   0.0000723  -0.0000559   0.0000035
   21  -0.0001853   0.0000694   0.0000514
   22  -0.0004363   0.0001262   0.0005335
   23   0.0000480   0.0000442  -0.0001132
   24   0.0002443  -0.0001279  -0.0004487
   25   0.0489420   0.0441862   0.0758818
   26   0.0441862   0.1454718   0.1345151
   27   0.0758818   0.1345151   0.2491128
 **********************************************************************
 **                                                                  **
 **                       VIBRATIONAL ANALYSIS                       **
 **                       --------------------                       **
 **                                                                  **
 **        VIBRATIONAL FREQUENCIES (CM**-1) AND NORMAL MODES         **
 **     FORCE CONSTANTS (mDYN/ANGSTROM) AND REDUCED MASSES (AMU)     **
 **                  INFRARED INTENSITIES (KM/MOL)                   **
 **                                                                  **
 **********************************************************************
 

 Mode:                 1                      2                      3
 Frequency:      -188.59                -131.13                 -62.59
 Force Cnst:      0.0232                 0.0110                 0.0025
 Red. Mass:       1.1055                 1.0830                 1.0667
 IR Active:          YES                    YES                    YES
 IR Intens:       33.792                287.579                 36.226
 Raman Active:       YES                    YES                    YES
               X      Y      Z        X      Y      Z        X      Y      Z
 C          0.046 -0.026 -0.009   -0.056  0.007  0.011   -0.005  0.006 -0.013
 C         -0.057 -0.030  0.007   -0.001  0.012  0.022    0.027  0.007 -0.024
 H          0.045 -0.013 -0.001    0.071 -0.007 -0.047   -0.471 -0.016  0.156
 H         -0.053 -0.043 -0.001   -0.102  0.025  0.068    0.481  0.032 -0.188
 H         -0.161 -0.023  0.036    0.178 -0.000 -0.029   -0.407 -0.012  0.134
 O         -0.014  0.034  0.002   -0.035 -0.023 -0.020   -0.042 -0.008  0.031
 H         -0.463  0.113 -0.055    0.768  0.056 -0.133    0.291 -0.026  0.034
 H          0.824  0.132  0.056    0.528  0.042  0.014    0.083 -0.024 -0.013
 H          0.158 -0.036 -0.042   -0.209  0.023  0.051    0.419  0.022 -0.166
 TransDip   0.149  0.111 -0.004    0.540  0.035 -0.044    0.190 -0.019 -0.023

 Mode:                 4                      5                      6
 Frequency:        54.59                 158.06                 183.33
 Force Cnst:      0.0032                 0.0175                 0.1097
 Red. Mass:       1.7955                 1.1913                 5.5417
 IR Active:          YES                    YES                    YES
 IR Intens:       24.643                 41.904                 18.876
 Raman Active:       YES                    YES                    YES
               X      Y      Z        X      Y      Z        X      Y      Z
 C         -0.153  0.037 -0.020    0.091 -0.012 -0.045   -0.243 -0.003 -0.031
 C          0.173  0.054  0.013   -0.035 -0.017  0.045   -0.278 -0.007  0.007
 H         -0.310 -0.070 -0.023    0.127 -0.038 -0.075   -0.416 -0.030  0.020
 H          0.327  0.161  0.016   -0.062  0.008  0.069   -0.137  0.014 -0.035
 H          0.314 -0.037  0.027   -0.110 -0.048  0.090   -0.481 -0.029  0.090
 O          0.002 -0.100  0.001   -0.040 -0.020 -0.005    0.449 -0.011  0.012
 H         -0.465  0.190 -0.264    0.134  0.437 -0.463    0.183  0.192 -0.177
 H          0.161  0.121  0.354   -0.279  0.293  0.557    0.001  0.124  0.301
 H         -0.303  0.130 -0.033    0.157  0.018 -0.086   -0.084  0.023 -0.101
 TransDip  -0.088  0.129  0.028   -0.022  0.203  0.033   -0.132  0.044  0.010

 Mode:                 7                      8                      9
 Frequency:       837.16                 927.20                 952.81
 Force Cnst:      0.4302                 0.7769                 0.6253
 Red. Mass:       1.0419                 1.5339                 1.1689
 IR Active:          YES                    YES                    YES
 IR Intens:        0.936                  2.047                 81.551
 Raman Active:       YES                    YES                    YES
               X      Y      Z        X      Y      Z        X      Y      Z
 C         -0.019 -0.001 -0.035    0.158  0.006 -0.055   -0.060 -0.004  0.023
 C         -0.017 -0.001 -0.035   -0.133 -0.008  0.045   -0.096 -0.004  0.036
 H          0.082  0.452  0.204   -0.535 -0.016  0.202    0.396 -0.010 -0.159
 H          0.075  0.444  0.202    0.363  0.026 -0.129    0.528  0.007 -0.204
 H          0.126 -0.435  0.219    0.392  0.011 -0.142    0.497  0.052 -0.199
 O          0.001 -0.000 -0.000   -0.001  0.003 -0.000    0.004  0.000  0.001
 H          0.002  0.000 -0.001   -0.006 -0.003  0.006   -0.015 -0.002  0.004
 H         -0.001  0.000  0.001    0.014 -0.001 -0.008   -0.015 -0.000  0.003
 H          0.125 -0.431  0.215   -0.514 -0.025  0.191    0.406  0.039 -0.162
 TransDip   0.025  0.002  0.019   -0.043  0.007  0.015    0.273  0.015 -0.094

 Mode:                10                     11                     12
 Frequency:      1057.75                1252.30                1386.83
 Force Cnst:      0.6646                 1.3992                 1.4097
 Red. Mass:       1.0082                 1.5143                 1.2440
 IR Active:          YES                    YES                    YES
 IR Intens:        0.036                  0.008                  0.081
 Raman Active:       YES                    YES                    YES
               X      Y      Z        X      Y      Z        X      Y      Z
 C         -0.004  0.001 -0.001   -0.050 -0.006 -0.143   -0.006  0.103 -0.002
 C          0.002  0.001  0.002    0.050  0.005  0.143    0.005 -0.104  0.003
 H         -0.458 -0.022  0.163    0.030  0.468  0.120    0.046  0.466  0.173
 H         -0.474 -0.036  0.167   -0.008 -0.465 -0.123   -0.035 -0.465 -0.175
 H          0.466  0.022 -0.167   -0.079  0.471 -0.140    0.089 -0.439  0.180
 O          0.000 -0.001  0.000    0.000  0.000 -0.000   -0.001  0.000  0.001
 H          0.001  0.005 -0.005   -0.002 -0.002  0.002    0.000  0.003 -0.003
 H         -0.004  0.002  0.005    0.003 -0.000 -0.002    0.002 -0.003 -0.006
 H          0.484  0.010 -0.171    0.055 -0.466  0.141   -0.083  0.453 -0.191
 TransDip   0.001 -0.006 -0.002    0.002 -0.002  0.000   -0.008 -0.003 -0.003

 Mode:                13                     14                     15
 Frequency:      1481.02                1700.13                1714.70
 Force Cnst:      1.4391                 5.1569                 1.8766
 Red. Mass:       1.1136                 3.0281                 1.0833
 IR Active:          YES                    YES                    YES
 IR Intens:        4.776                  0.230                 63.225
 Raman Active:       YES                    YES                    YES
               X      Y      Z        X      Y      Z        X      Y      Z
 C          0.003 -0.071  0.002    0.015 -0.302  0.004    0.000  0.007 -0.000
 C          0.004 -0.068 -0.000   -0.016  0.303 -0.004    0.001 -0.007 -0.000
 H          0.068  0.417  0.256    0.109  0.263  0.344   -0.004 -0.004 -0.005
 H          0.062  0.426  0.262   -0.110 -0.273 -0.352    0.002  0.001  0.006
 H         -0.111  0.403 -0.268    0.136 -0.242  0.354   -0.003  0.001 -0.005
 O         -0.000  0.000 -0.000    0.001  0.001 -0.004   -0.005  0.009 -0.070
 H          0.001 -0.001  0.001   -0.005 -0.029  0.030    0.047 -0.497  0.499
 H         -0.000  0.001  0.002   -0.006  0.019  0.035    0.026  0.352  0.610
 H         -0.105  0.401 -0.271   -0.135  0.241 -0.354    0.004 -0.002  0.007
 TransDip  -0.003  0.070 -0.001    0.015  0.002  0.002    0.024 -0.032  0.251

 Mode:                16                     17                     18
 Frequency:      3165.22                3179.93                3246.90
 Force Cnst:      6.1783                 6.3745                 6.9300
 Red. Mass:       1.0467                 1.0699                 1.1157
 IR Active:          YES                    YES                    YES
 IR Intens:       17.290                  1.208                  0.168
 Raman Active:       YES                    YES                    YES
               X      Y      Z        X      Y      Z        X      Y      Z
 C         -0.003  0.043 -0.004   -0.003  0.052 -0.003   -0.024 -0.005 -0.067
 C         -0.001  0.040  0.003    0.002 -0.054 -0.002    0.023 -0.001  0.064
 H          0.173 -0.256  0.443    0.159 -0.238  0.407    0.153 -0.239  0.389
 H          0.147 -0.213  0.374   -0.158  0.234 -0.404   -0.164  0.254 -0.416
 H         -0.137 -0.270 -0.412    0.143  0.284  0.429   -0.119 -0.248 -0.359
 O         -0.000 -0.000  0.000   -0.000  0.000 -0.000    0.000  0.000  0.000
 H          0.001  0.000 -0.001   -0.000 -0.000  0.000   -0.001 -0.000 -0.000
 H         -0.001 -0.000  0.001    0.000  0.000  0.000    0.001 -0.001 -0.000
 H         -0.132 -0.255 -0.393   -0.126 -0.248 -0.376    0.142  0.295  0.427
 TransDip  -0.006  0.133  0.001   -0.016 -0.004 -0.031   -0.003  0.009 -0.009

 Mode:                19                     20                     21
 Frequency:      3271.93                3727.31                3850.35
 Force Cnst:      7.0596                 8.5566                 9.4452
 Red. Mass:       1.1192                 1.0453                 1.0813
 IR Active:          YES                    YES                    YES
 IR Intens:       29.917                  2.297                 20.748
 Raman Active:       YES                    YES                    YES
               X      Y      Z        X      Y      Z        X      Y      Z
 C         -0.024 -0.004 -0.065   -0.000  0.000 -0.000   -0.000  0.000 -0.000
 C         -0.025  0.000 -0.069   -0.000 -0.000 -0.000   -0.000  0.000  0.000
 H          0.148 -0.232  0.378    0.000 -0.000  0.000    0.000  0.000  0.000
 H          0.169 -0.263  0.429    0.000 -0.000  0.001    0.000  0.000 -0.000
 H          0.129  0.269  0.388    0.000  0.000  0.000   -0.000 -0.000 -0.000
 O         -0.000 -0.000  0.000    0.004 -0.007  0.049    0.002 -0.069 -0.010
 H         -0.000  0.001  0.000   -0.018 -0.523 -0.463    0.022  0.500  0.507
 H          0.000 -0.001 -0.000   -0.047  0.636 -0.319   -0.048  0.599 -0.354
 H          0.132  0.275  0.397    0.000  0.000  0.000   -0.000  0.000  0.000
 TransDip  -0.066 -0.008 -0.162    0.013  0.007 -0.046   -0.004  0.145  0.019

 STANDARD THERMODYNAMIC QUANTITIES AT   298.15 K  AND     1.00 ATM

   This Molecule has  3 Imaginary Frequencies
   Zero point vibrational energy:       45.957 kcal/mol

   Atom    1 Element C  Has Mass   12.00000
   Atom    2 Element C  Has Mass   12.00000
   Atom    3 Element H  Has Mass    1.00783
   Atom    4 Element H  Has Mass    1.00783
   Atom    5 Element H  Has Mass    1.00783
   Atom    6 Element O  Has Mass   15.99491
   Atom    7 Element H  Has Mass    1.00783
   Atom    8 Element H  Has Mass    1.00783
   Atom    9 Element H  Has Mass    1.00783
   Molecular Mass:    46.041890 amu
   Principal axes and moments of inertia in amu*Bohr^2:
                             1           2           3
    Eigenvalues --       77.25147   364.20986   414.87662
          X               0.99996     0.00061    -0.00864
          Y              -0.00056     0.99999     0.00541
          Z               0.00865    -0.00541     0.99995
   Rotational Symmetry Number is   1
   The Molecule is an Asymmetric Top
   Translational Enthalpy:        0.889 kcal/mol
   Rotational Enthalpy:           0.889 kcal/mol
   Vibrational Enthalpy:         47.378 kcal/mol
   gas constant (RT):             0.592 kcal/mol
   Translational Entropy:        37.406  cal/mol.K
   Rotational Entropy:           23.971  cal/mol.K
   Vibrational Entropy:          10.077  cal/mol.K

   Total Enthalpy:               49.747 kcal/mol
   Total Entropy:                71.454  cal/mol.K
Archival summary:
1\1\node018\FREQ\ProcedureUnspecified\6-31G*\126\guest94\SunMar2217:01:462020SunMar2217:01:462020\0\\#,FREQ,ProcedureUnspecified,6-31G*,\\0,1\C\H,1,1.08549\H,1,1.08549,2,117.9\C,1,1.33579,2,121.05,3,180,0\H,4,1.08549,1,121.05,2,0,0\H,4,1.08549,1,121.05,2,-180,0\H,6,3,4,79.5773,1,-84.4707,0\O,7,0.969,6,87.439,4,86.8866,0\H,8,0.969,7,103.978,6,-113.525,0\\\@

 Total job time:  19.16s(wall), 29.39s(cpu) 
 Sun Mar 22 17:01:46 2020

        *************************************************************
        *                                                           *
        *  Thank you very much for using Q-Chem.  Have a nice day.  *
        *                                                           *
        *************************************************************


