                  Welcome to Q-Chem
     A Quantum Leap Into The Future Of Chemistry


 Q-Chem 5.2 (devel), Q-Chem, Inc., Pleasanton, CA (2019)

 Yihan Shao,  Zhengting Gan,  E. Epifanovsky,  A. T. B. Gilbert,  M. Wormit,  
 J. Kussmann,  A. W. Lange,  A. Behn,  Jia Deng,  Xintian Feng,  D. Ghosh,  
 M. Goldey,  P. R. Horn,  L. D. Jacobson,  I. Kaliman,  T. Kus,  A. Landau,  
 Jie Liu,  E. I. Proynov,  R. M. Richard,  R. P. Steele,  E. J. Sundstrom,  
 H. L. Woodcock III,  P. M. Zimmerman,  D. Zuev,  B. Albrecht,  E. Alguire,  
 S. A. Baeppler,  D. Barton,  Z. Benda,  Y. A. Bernard,  E. J. Berquist,  
 K. B. Bravaya,  H. Burton,  D. Casanova,  Chun-Min Chang,  Yunqing Chen,  
 A. Chien,  K. D. Closser,  M. P. Coons,  S. Coriani,  S. Dasgupta,  
 A. L. Dempwolff,  M. Diedenhofen,  Hainam Do,  R. G. Edgar,  Po-Tung Fang,  
 S. Faraji,  S. Fatehi,  Qingguo Feng,  K. D. Fenk,  J. Fosso-Tande,  
 J. Gayvert,  Qinghui Ge,  A. Ghysels,  G. Gidofalvi,  J. Gomes,  
 J. Gonthier,  A. Gunina,  D. Hait,  M. W. D. Hanson-Heine,  
 P. H. P. Harbach,  A. W. Hauser,  M. F. Herbst,  J. E. Herr,  
 E. G. Hohenstein,  Z. C. Holden,  Kerwin Hui,  B. C. Huynh,  T.-C. Jagau,  
 Hyunjun Ji,  B. Kaduk,  K. Khistyaev,  Jaehoon Kim,  P. Klunzinger,  K. Koh,  
 D. Kosenkov,  L. Koulias,  T. Kowalczyk,  C. M. Krauter,  A. Kunitsa,  
 Ka Un Lao,  A. Laurent,  K. V. Lawler,  Joonho Lee,  D. Lefrancois,  
 S. Lehtola,  D. S. Levine,  Yi-Pei Li,  You-Sheng Lin,  Fenglai Liu,  
 E. Livshits,  A. Luenser,  P. Manohar,  E. Mansoor,  S. F. Manzer,  
 Shan-Ping Mao,  Yuezhi Mao,  N. Mardirossian,  A. V. Marenich,  
 T. Markovich,  L. A. Martinez-Martinez,  S. A. Maurer,  N. J. Mayhall,  
 S. C. McKenzie,  J.-M. Mewes,  P. Morgante,  A. F. Morrison,  
 J. W. Mullinax,  K. Nanda,  T. S. Nguyen-Beck,  R. Olivares-Amaya,  
 J. A. Parkhill,  Zheng Pei,  T. M. Perrine,  F. Plasser,  P. Pokhilko,  
 S. Prager,  A. Prociuk,  E. Ramos,  D. R. Rehn,  F. Rob,  M. Scheurer,  
 M. Schneider,  N. Sergueev,  S. M. Sharada,  S. Sharma,  D. W. Small,  
 T. Stauch,  T. Stein,  Yu-Chuan Su,  A. J. W. Thom,  A. Tkatchenko,  
 T. Tsuchimochi,  N. M. Tubman,  L. Vogt,  M. L. Vidal,  O. Vydrov,  
 M. A. Watson,  J. Wenzel,  M. de Wergifosse,  T. A. Wesolowski,  A. White,  
 J. Witte,  A. Yamada,  Jun Yang,  K. Yao,  S. Yeganeh,  S. R. Yost,  
 Zhi-Qiang You,  A. Zech,  Igor Ying Zhang,  Xing Zhang,  Yan Zhao,  
 Ying Zhu,  B. R. Brooks,  G. K. L. Chan,  C. J. Cramer,  M. S. Gordon,  
 W. J. Hehre,  A. Klamt,  M. W. Schmidt,  C. D. Sherrill,  D. G. Truhlar,  
 A. Aspuru-Guzik,  R. Baer,  A. T. Bell,  N. A. Besley,  Jeng-Da Chai,  
 A. E. DePrince, III,  R. A. DiStasio Jr.,  A. Dreuw,  B. D. Dunietz,  
 T. R. Furlani,  Chao-Ping Hsu,  Yousung Jung,  Jing Kong,  D. S. Lambrecht,  
 WanZhen Liang,  C. Ochsenfeld,  V. A. Rassolov,  L. V. Slipchenko,  
 J. E. Subotnik,  T. Van Voorhis,  J. M. Herbert,  A. I. Krylov,  
 P. M. W. Gill,  M. Head-Gordon

 Contributors to earlier versions of Q-Chem not listed above: 
 R. D. Adamson,  B. Austin,  J. Baker,  G. J. O. Beran,  K. Brandhorst,  
 S. T. Brown,  E. F. C. Byrd,  A. K. Chakraborty,  C.-L. Cheng,  
 Siu Hung Chien,  D. M. Chipman,  D. L. Crittenden,  H. Dachsel,  
 R. J. Doerksen,  A. D. Dutoi,  L. Fusti-Molnar,  W. A. Goddard III,  
 A. Golubeva-Zadorozhnaya,  S. R. Gwaltney,  G. Hawkins,  A. Heyden,  
 S. Hirata,  G. Kedziora,  F. J. Keil,  C. Kelley,  Jihan Kim,  R. A. King,  
 R. Z. Khaliullin,  P. P. Korambath,  W. Kurlancheek,  A. M. Lee,  M. S. Lee,  
 S. V. Levchenko,  Ching Yeh Lin,  D. Liotard,  R. C. Lochan,  I. Lotan,  
 P. E. Maslen,  N. Nair,  D. P. O'Neill,  D. Neuhauser,  E. Neuscamman,  
 C. M. Oana,  R. Olson,  B. Peters,  R. Peverati,  P. A. Pieniazek,  
 Y. M. Rhee,  J. Ritchie,  M. A. Rohrdanz,  E. Rosta,  N. J. Russ,  
 H. F. Schaefer III,  N. E. Schultz,  N. Shenvi,  A. C. Simmonett,  A. Sodt,  
 D. Stuck,  K. S. Thanthiriwatte,  V. Vanovschi,  Tao Wang,  A. Warshel,  
 C. F. Williams,  Q. Wu,  X. Xu,  W. Zhang

 Please cite Q-Chem as follows:
 Y. Shao et al., Mol. Phys. 113, 184-215 (2015)
 DOI: 10.1080/00268976.2014.952696

 Q-Chem 5.2.1 for Intel X86 EM64T Linux

 Parts of Q-Chem use Armadillo 8.300.2 (Tropical Shenanigans).
 http://arma.sourceforge.net/

 Q-Chem begins on Mon Mar  9 18:25:35 2020  

Host: node018
0

     Scratch files written to /tmp/ypli/105343.h81/qchem14321//
NAlpha2: 26
NElect   26
Mult     1

Checking the input file for inconsistencies... 	...done.

--------------------------------------------------------------
User input:
--------------------------------------------------------------
$rem
jobtype = freq
exchange = b3lyp
basis = 6-31g*
$end

$molecule
0 1
C     -6.72018696    0.97153445   -0.00139873
C     -5.48012863    1.83857463   -0.06847590
H     -7.61797014    1.55795445   -0.21582388
H     -6.82326184    0.51908815    0.99037288
H     -6.65442657    0.14906600   -0.72122634
O     -4.32567871    1.05574208    0.19846236
H     -5.52962098    2.65169744    0.66204381
H     -5.37258578    2.27629782   -1.06516822
H     -4.42349337    0.68470910    1.09203139
$end
--------------------------------------------------------------
 ----------------------------------------------------------------
             Standard Nuclear Orientation (Angstroms)
    I     Atom           X                Y                Z
 ----------------------------------------------------------------
    1      C       1.1891552668    -0.2426235307     0.0200085166
    2      C      -0.0824430675     0.5775141518    -0.0464334897
    3      H       2.0706069761     0.3951275616    -0.0904343560
    4      H       1.2021745580    -1.0016499680    -0.7690747345
    5      H       1.2547509240    -0.7747773247     0.9747022464
    6      O      -1.2132208214    -0.2666672920     0.1133689352
    7      H      -0.1648747155     1.0970196330    -1.0059105984
    8      H      -0.0984760592     1.3242769692     0.7527228617
    9      H      -1.1986883080    -0.9160022614    -0.6104070625
 ----------------------------------------------------------------
 Molecular Point Group                 C1    NOp =  1
 Largest Abelian Subgroup              C1    NOp =  1
 Nuclear Repulsion Energy =          82.02271795 hartrees
 There are       13 alpha and       13 beta electrons
 Requested basis set is 6-31G(d)
 There are 24 shells and 57 basis functions

 Total QAlloc Memory Limit   2000 MB
 Mega-Array Size       188 MB
 MEM_STATIC part       192 MB

                       Distance Matrix (Angstroms)
             C (  1)   C (  2)   H (  3)   H (  4)   H (  5)   O (  6)
   C (  2)  1.514597
   H (  3)  1.093564  2.161209
   H (  4)  1.094963  2.160142  1.779246
   H (  5)  1.094957  2.158587  1.780116  1.759259
   O (  6)  2.404310  1.420154  3.356044  2.674517  2.662885
   H (  7)  2.163458  1.094202  2.515577  2.515816  3.072749  2.052184
   H (  8)  2.156396  1.093875  2.505824  3.068794  2.507295  2.045124
   H (  9)  2.559816  1.947989  3.560579  2.407624  2.924360  0.972470
             H (  7)   H (  8)
   H (  8)  1.774499
   H (  9)  2.297270  2.843843
 
 A cutoff of  1.0D-11 yielded    299 shell pairs
 There are      1733 function pairs
 Smallest overlap matrix eigenvalue = 6.01E-03
 Guess from superposition of atomic densities
 Warning:  Energy on first SCF cycle will be non-variational
 SAD guess density has 26.000000 electrons

 -----------------------------------------------------------------------
  General SCF calculation program by
  Eric Jon Sundstrom, Paul Horn, Yuezhi Mao, Dmitri Zuev, Alec White,
  David Stuck, Shaama M.S., Shane Yost, Joonho Lee, David Small,
  Daniel Levine, Susi Lehtola, Hugh Burton, Evgeny Epifanovsky,
  Bang C. Huynh
 -----------------------------------------------------------------------
 Exchange:     0.2000 Hartree-Fock + 0.0800 Slater + 0.7200 B88
 Correlation:  0.1900 VWN1RPA + 0.8100 LYP
 Using SG-1 standard quadrature grid
 using 2 threads for integral computing
 -------------------------------------------------------
 OpenMP Integral computing Module                
 Release: version 2.0, May 2017, Q-Chem Inc. Pleasanton 
 -------------------------------------------------------
 A restricted SCF calculation will be
 performed using DIIS
 SCF converges when DIIS error is below 1.0e-08
 ---------------------------------------
  Cycle       Energy         DIIS error
 ---------------------------------------
    1    -155.3492925770      1.00e-01  
    2    -154.9441552220      1.55e-02  
    3    -154.9133190720      1.88e-02  
    4    -155.0318811024      1.95e-03  
    5    -155.0329699578      7.25e-04  
    6    -155.0331483411      8.23e-05  
    7    -155.0331507286      1.30e-05  
    8    -155.0331507893      4.32e-06  
    9    -155.0331507961      1.04e-06  
   10    -155.0331507966      7.98e-08  
   11    -155.0331507966      1.59e-08  
   12    -155.0331507966      2.23e-09  Convergence criterion met
 ---------------------------------------
 SCF time:   CPU 5.24s  wall 4.00s 
 SCF   energy in the final basis set =     -155.0331507966
 Total energy in the final basis set =     -155.0331507966
 
 --------------------------------------------------------------
 
                    Orbital Energies (a.u.)
 --------------------------------------------------------------
 
 Alpha MOs
 -- Occupied --
-19.1353 -10.2266 -10.1760  -1.0097  -0.7444  -0.6207  -0.4974  -0.4520
 -0.4270  -0.3808  -0.3681  -0.3184  -0.2605
 -- Virtual --
  0.0745   0.1238   0.1457   0.1587   0.1689   0.1925   0.2237   0.2478
  0.5246   0.5505   0.5592   0.5900   0.6594   0.6818   0.8027   0.8609
  0.8778   0.8919   0.9009   0.9488   0.9816   1.0278   1.0323   1.1365
  1.3732   1.4463   1.5037   1.5812   1.7572   1.8308   1.9148   1.9596
  2.0926   2.1447   2.2165   2.2887   2.3765   2.4184   2.5113   2.6333
  2.8277   3.7283   4.1735   4.3942
 --------------------------------------------------------------
 
          Ground-State Mulliken Net Atomic Charges

     Atom                 Charge (a.u.)
  ----------------------------------------
      1 C                    -0.454872
      2 C                    -0.024050
      3 H                     0.140629
      4 H                     0.133758
      5 H                     0.160522
      6 O                    -0.612167
      7 H                     0.122020
      8 H                     0.149755
      9 H                     0.384405
  ----------------------------------------
  Sum of atomic charges =     0.000000

 -----------------------------------------------------------------
                    Cartesian Multipole Moments
 -----------------------------------------------------------------
    Charge (ESU x 10^10)
                -0.0000
    Dipole Moment (Debye)
         X       1.1534      Y      -0.2055      Z      -1.1841
       Tot       1.6657
    Quadrupole Moments (Debye-Ang)
        XX     -22.1230     XY       0.9445     YY     -18.2494
        XZ       1.8205     YZ       1.4855     ZZ     -18.9702
    Octopole Moments (Debye-Ang^2)
       XXX      -2.1468    XXY      -1.2449    XYY      -3.2583
       YYY      -2.3451    XXZ      -2.0893    XYZ      -1.6991
       YYZ      -0.7996    XZZ      -2.4274    YZZ      -0.9900
       ZZZ      -0.2646
    Hexadecapole Moments (Debye-Ang^3)
      XXXX    -155.3126   XXXY       6.2845   XXYY     -32.1386
      XYYY       3.9557   YYYY     -55.3299   XXXZ       2.8063
      XXYZ       1.8911   XYYZ       1.3598   YYYZ       2.5068
      XXZZ     -30.2668   XYZZ       0.6395   YYZZ     -13.3805
      XZZZ       1.5160   YZZZ       1.0329   ZZZZ     -32.9820
 -----------------------------------------------------------------
 Calculating MO derivatives via CPSCF
    1     0    30    0.0411238  
    2     0    30    0.0038297  
    3     0    30    0.0002049  
    4    20    10    0.0000093  
    5    30     0    0.0000003  Converged
 Time for AOints: 0.5 s (CPU) 1.4 s (wall)
 ------------------------------------------------------------------------------
                     AOints        : Timing summary (seconds)
 ------------------------------------------------------------------------------
     job step          cpu (% of tot)      sys (% of tot)     wall (% of tot)
 ------------------------------------------------------------------------------
  AOints            0.4913E+00 ( 4.9)   0.4000E-05 (11.8)   0.1412E+01 (14.1)
 ------------------------------------------------------------------------------
   Grand Totals     0.9952E+01          0.3400E-04          0.9982E+01
 ------------------------------------------------------------------------------
 Polarizability Matrix (a.u.)
            1           2           3
    1 -26.6878089  -1.1275604  -0.4654707
    2  -1.1275604 -26.6263845  -1.2503513
    3  -0.4654707  -1.2503513 -24.9013858
 Calculating analytic Hessian of the SCF energy
 
 Direct stationary perturbation theory relativistic correction:
 
 rels  =       0.047289376660
 relv  =      -0.196652920635
 rel2e =       0.070907023191
 E_rel =      -0.078456520784
 
 Hessian of the SCF Energy
            1           2           3           4           5           6
    1   0.5306676   0.0447926  -0.0037250  -0.1579293   0.0624421  -0.0079069
    2   0.0447926   0.5666250  -0.0003643   0.0743541  -0.1322643   0.0021834
    3  -0.0037250  -0.0003643   0.5769965  -0.0063778   0.0035091  -0.0879095
    4  -0.1579293   0.0743541  -0.0063778   0.4593256  -0.0155150   0.0100689
    5   0.0624421  -0.1322643   0.0035091  -0.0155150   0.5719420   0.0358218
    6  -0.0079069   0.0021834  -0.0879095   0.0100689   0.0358218   0.6430874
    7  -0.2223234  -0.1243597   0.0213547  -0.0174507  -0.0222624   0.0033732
    8  -0.1261490  -0.1426205   0.0162798   0.0127369   0.0132915  -0.0022489
    9   0.0215812   0.0159801  -0.0516309  -0.0015623  -0.0011973  -0.0018349
   10  -0.0496392   0.0002438   0.0005464  -0.0017983   0.0210301   0.0234304
   11   0.0011431  -0.1734768  -0.1312286  -0.0015198  -0.0160324  -0.0158109
   12   0.0001803  -0.1315214  -0.1897401  -0.0010275   0.0014764   0.0017719
   13  -0.0496434   0.0042572  -0.0105496  -0.0024974   0.0155317  -0.0280783
   14   0.0063150  -0.1103583   0.1104144   0.0002414  -0.0116776   0.0194191
   15  -0.0122048   0.1110540  -0.2553461   0.0004359   0.0007315  -0.0006119
   16  -0.0500288  -0.0323377   0.0060156  -0.1731000  -0.0593758   0.0430845
   17   0.0032278   0.0079540  -0.0035235  -0.0936601  -0.1314353   0.0155207
   18   0.0019343  -0.0002554   0.0050870   0.0100718  -0.0137449  -0.0931326
   19  -0.0017351   0.0147633  -0.0271983  -0.0505728   0.0151701  -0.0275028
   20   0.0043833  -0.0077262   0.0174572   0.0159089  -0.1043492   0.0951306
   21   0.0001814  -0.0006801  -0.0002609  -0.0249324   0.0985217  -0.2569626
   22  -0.0003054   0.0202006   0.0225504  -0.0507970   0.0119854   0.0121962
   23   0.0027637  -0.0113369  -0.0138078   0.0067548  -0.1672511  -0.1260959
   24  -0.0004367   0.0022193   0.0023179   0.0064222  -0.1329150  -0.2054947
   25   0.0009370  -0.0019143  -0.0026165  -0.0051800  -0.0290061  -0.0286652
   26   0.0010814   0.0032039   0.0012636   0.0006988  -0.0222236  -0.0239200
   27   0.0003962   0.0013845   0.0004861   0.0069012   0.0077968   0.0010869
            7           8           9          10          11          12
    1  -0.2223234  -0.1261490   0.0215812  -0.0496392   0.0011431   0.0001803
    2  -0.1243597  -0.1426205   0.0159801   0.0002438  -0.1734768  -0.1315214
    3   0.0213547   0.0162798  -0.0516309   0.0005464  -0.1312286  -0.1897401
    4  -0.0174507   0.0127369  -0.0015623  -0.0017983  -0.0015198  -0.0010275
    5  -0.0222624   0.0132915  -0.0011973   0.0210301  -0.0160324   0.0014764
    6   0.0033732  -0.0022489  -0.0018349   0.0234304  -0.0158109   0.0017719
    7   0.2423142   0.1383055  -0.0244145   0.0014456   0.0012369  -0.0006888
    8   0.1383055   0.1495482  -0.0177519  -0.0175014  -0.0123085   0.0038102
    9  -0.0244145  -0.0177519   0.0494616  -0.0214287  -0.0132889   0.0031280
   10   0.0014456  -0.0175014  -0.0214287   0.0516969  -0.0040340  -0.0003235
   11   0.0012369  -0.0123085  -0.0132889  -0.0040340   0.1871138   0.1456961
   12  -0.0006888   0.0038102   0.0031280  -0.0003235   0.1456961   0.2028704
   13   0.0027961  -0.0114848   0.0249998  -0.0006049  -0.0000645  -0.0004320
   14   0.0022386  -0.0088441   0.0159143  -0.0012855   0.0120821  -0.0210642
   15   0.0003482  -0.0001149  -0.0011643  -0.0009297   0.0115493  -0.0211775
   16  -0.0092667   0.0053512  -0.0001535   0.0037828  -0.0012164   0.0009025
   17   0.0031626   0.0005274   0.0002142   0.0006141   0.0023336   0.0018973
   18  -0.0002542  -0.0002212   0.0019649  -0.0001675   0.0019347   0.0005390
   19   0.0010122  -0.0010557   0.0002952   0.0012092  -0.0005033   0.0008527
   20   0.0005015   0.0003898  -0.0001156  -0.0012881   0.0005091   0.0001452
   21  -0.0009088   0.0002802  -0.0000878  -0.0002237   0.0003554   0.0010509
   22   0.0008207  -0.0008799  -0.0000233  -0.0049983   0.0038649  -0.0006728
   23   0.0004062   0.0004631   0.0000535   0.0030820  -0.0008401   0.0001560
   24   0.0006275  -0.0002951   0.0000082  -0.0003373   0.0009719   0.0016424
   25   0.0006521   0.0006772   0.0007061  -0.0010937   0.0010930   0.0012092
   26   0.0007709  -0.0004468   0.0001917  -0.0008609   0.0006192  -0.0005956
   27   0.0005628   0.0002617   0.0001551  -0.0005664  -0.0001789  -0.0000851
           13          14          15          16          17          18
    1  -0.0496434   0.0063150  -0.0122048  -0.0500288   0.0032278   0.0019343
    2   0.0042572  -0.1103583   0.1110540  -0.0323377   0.0079540  -0.0002554
    3  -0.0105496   0.1104144  -0.2553461   0.0060156  -0.0035235   0.0050870
    4  -0.0024974   0.0002414   0.0004359  -0.1731000  -0.0936601   0.0100718
    5   0.0155317  -0.0116776   0.0007315  -0.0593758  -0.1314353  -0.0137449
    6  -0.0280783   0.0194191  -0.0006119   0.0430845   0.0155207  -0.0931326
    7   0.0027961   0.0022386   0.0003482  -0.0092667   0.0031626  -0.0002542
    8  -0.0114848  -0.0088441  -0.0001149   0.0053512   0.0005274  -0.0002212
    9   0.0249998   0.0159143  -0.0011643  -0.0001535   0.0002142   0.0019649
   10  -0.0006049  -0.0012855  -0.0009297   0.0037828   0.0006141  -0.0001675
   11  -0.0000645   0.0120821   0.0115493  -0.0012164   0.0023336   0.0019347
   12  -0.0004320  -0.0210642  -0.0211775   0.0009025   0.0018973   0.0005390
   13   0.0506050  -0.0094290   0.0129017   0.0035638  -0.0011076   0.0010987
   14  -0.0094290   0.1177779  -0.1221605  -0.0013058   0.0019126  -0.0020611
   15   0.0129017  -0.1221605   0.2749655  -0.0003238  -0.0016416   0.0009375
   16   0.0035638  -0.0013058  -0.0003238   0.2718862   0.1282194  -0.0627959
   17  -0.0011076   0.0019126  -0.0016416   0.1282194   0.3699489   0.2237534
   18   0.0010987  -0.0020611   0.0009375  -0.0627959   0.2237534   0.3558147
   19  -0.0051803   0.0039322   0.0002594  -0.0100774  -0.0274012   0.0299955
   20   0.0031629  -0.0011685   0.0002710  -0.0152207  -0.0177742   0.0208672
   21  -0.0000525  -0.0003326   0.0017846   0.0077815   0.0069950   0.0028857
   22   0.0012026  -0.0008530  -0.0005184  -0.0039426  -0.0258328  -0.0230964
   23  -0.0009324   0.0003150   0.0000107  -0.0061647  -0.0180028  -0.0153247
   24   0.0004219   0.0000579   0.0010705  -0.0025178   0.0031724   0.0074971
   25  -0.0002416   0.0001461   0.0000315  -0.0328172   0.0127778   0.0432136
   26   0.0000665  -0.0000391   0.0003006  -0.0179496  -0.2154642  -0.2149480
   27  -0.0003098  -0.0001872  -0.0004583   0.0080068  -0.2463880  -0.2815933
           19          20          21          22          23          24
    1  -0.0017351   0.0043833   0.0001814  -0.0003054   0.0027637  -0.0004367
    2   0.0147633  -0.0077262  -0.0006801   0.0202006  -0.0113369   0.0022193
    3  -0.0271983   0.0174572  -0.0002609   0.0225504  -0.0138078   0.0023179
    4  -0.0505728   0.0159089  -0.0249324  -0.0507970   0.0067548   0.0064222
    5   0.0151701  -0.1043492   0.0985217   0.0119854  -0.1672511  -0.1329150
    6  -0.0275028   0.0951306  -0.2569626   0.0121962  -0.1260959  -0.2054947
    7   0.0010122   0.0005015  -0.0009088   0.0008207   0.0004062   0.0006275
    8  -0.0010557   0.0003898   0.0002802  -0.0008799   0.0004631  -0.0002951
    9   0.0002952  -0.0001156  -0.0000878  -0.0000233   0.0000535   0.0000082
   10   0.0012092  -0.0012881  -0.0002237  -0.0049983   0.0030820  -0.0003373
   11  -0.0005033   0.0005091   0.0003554   0.0038649  -0.0008401   0.0009719
   12   0.0008527   0.0001452   0.0010509  -0.0006728   0.0001560   0.0016424
   13  -0.0051803   0.0031629  -0.0000525   0.0012026  -0.0009324   0.0004219
   14   0.0039322  -0.0011685  -0.0003326  -0.0008530   0.0003150   0.0000579
   15   0.0002594   0.0002710   0.0017846  -0.0005184   0.0000107   0.0010705
   16  -0.0100774  -0.0152207   0.0077815  -0.0039426  -0.0061647  -0.0025178
   17  -0.0274012  -0.0177742   0.0069950  -0.0258328  -0.0180028   0.0031724
   18   0.0299955   0.0208672   0.0028857  -0.0230964  -0.0153247   0.0074971
   19   0.0626662  -0.0064991   0.0207634   0.0018222  -0.0000733   0.0019696
   20  -0.0064991   0.1170825  -0.1158221  -0.0013223   0.0124565  -0.0191896
   21   0.0207634  -0.1158221   0.2708676  -0.0032076   0.0108765  -0.0205824
   22   0.0018222  -0.0013223  -0.0032076   0.0608287  -0.0026707  -0.0072590
   23  -0.0000733   0.0124565   0.0108765  -0.0026707   0.1862506   0.1433579
   24   0.0019696  -0.0191896  -0.0205824  -0.0072590   0.1433579   0.2115023
   25   0.0008557   0.0003736   0.0005987  -0.0046309  -0.0031654   0.0011096
   26   0.0016669   0.0005801  -0.0001940  -0.0044922  -0.0020543   0.0026203
   27   0.0005653   0.0012561   0.0013049   0.0000310   0.0007737   0.0020386
           25          26          27
    1   0.0009370   0.0010814   0.0003962
    2  -0.0019143   0.0032039   0.0013845
    3  -0.0026165   0.0012636   0.0004861
    4  -0.0051800   0.0006988   0.0069012
    5  -0.0290061  -0.0222236   0.0077968
    6  -0.0286652  -0.0239200   0.0010869
    7   0.0006521   0.0007709   0.0005628
    8   0.0006772  -0.0004468   0.0002617
    9   0.0007061   0.0001917   0.0001551
   10  -0.0010937  -0.0008609  -0.0005664
   11   0.0010930   0.0006192  -0.0001789
   12   0.0012092  -0.0005956  -0.0000851
   13  -0.0002416   0.0000665  -0.0003098
   14   0.0001461  -0.0000391  -0.0001872
   15   0.0000315   0.0003006  -0.0004583
   16  -0.0328172  -0.0179496   0.0080068
   17   0.0127778  -0.2154642  -0.2463880
   18   0.0432136  -0.2149480  -0.2815933
   19   0.0008557   0.0016669   0.0005653
   20   0.0003736   0.0005801   0.0012561
   21   0.0005987  -0.0001940   0.0013049
   22  -0.0046309  -0.0044922   0.0000310
   23  -0.0031654  -0.0020543   0.0007737
   24   0.0011096   0.0026203   0.0020386
   25   0.0415185   0.0190182  -0.0155870
   26   0.0190182   0.2358247   0.2352814
   27  -0.0155870   0.2352814   0.2770650
 **********************************************************************
 **                                                                  **
 **                       VIBRATIONAL ANALYSIS                       **
 **                       --------------------                       **
 **                                                                  **
 **        VIBRATIONAL FREQUENCIES (CM**-1) AND NORMAL MODES         **
 **     FORCE CONSTANTS (mDYN/ANGSTROM) AND REDUCED MASSES (AMU)     **
 **                  INFRARED INTENSITIES (KM/MOL)                   **
 **                                                                  **
 **********************************************************************
 

 Mode:                 1                      2                      3
 Frequency:       253.93                 340.00                 437.33
 Force Cnst:      0.0417                 0.0743                 0.3028
 Red. Mass:       1.0973                 1.0911                 2.6874
 IR Active:          YES                    YES                    YES
 IR Intens:        1.424                130.282                  9.732
 Raman Active:       YES                    YES                    YES
               X      Y      Z        X      Y      Z        X      Y      Z
 C         -0.002 -0.001 -0.004    0.024  0.013  0.020   -0.197 -0.035  0.010
 C         -0.001 -0.006 -0.065    0.001 -0.020 -0.037   -0.013  0.185 -0.035
 H          0.020  0.070  0.581    0.006  0.050  0.072    0.091 -0.432  0.055
 H          0.310  0.320 -0.304    0.090 -0.006  0.044   -0.474 -0.090  0.055
 H         -0.340 -0.371 -0.186   -0.022  0.038  0.036   -0.528 -0.046  0.024
 O          0.003  0.012  0.052    0.015 -0.033  0.045    0.212 -0.104  0.023
 H         -0.023 -0.090 -0.109   -0.034 -0.083 -0.065   -0.114  0.165 -0.035
 H          0.018  0.060 -0.126    0.001  0.033 -0.087   -0.058  0.165 -0.017
 H          0.003 -0.095  0.147   -0.582  0.585 -0.520    0.216  0.097 -0.156
 TransDip  -0.004 -0.038  0.004   -0.235  0.184 -0.211   -0.053  0.078 -0.032

 Mode:                 4                      5                      6
 Frequency:       810.71                 920.29                1079.24
 Force Cnst:      0.4176                 1.0973                 0.9586
 Red. Mass:       1.0784                 2.1991                 1.3969
 IR Active:          YES                    YES                    YES
 IR Intens:        2.746                 10.574                 83.722
 Raman Active:       YES                    YES                    YES
               X      Y      Z        X      Y      Z        X      Y      Z
 C          0.008 -0.004 -0.044    0.220 -0.004 -0.009   -0.031 -0.068 -0.047
 C         -0.003 -0.009 -0.063   -0.018  0.152 -0.008    0.047  0.097  0.057
 H          0.019  0.019  0.182    0.625 -0.564  0.055   -0.207  0.213  0.086
 H          0.326 -0.263  0.216   -0.147 -0.088  0.059    0.367 -0.139  0.038
 H         -0.319  0.309  0.155   -0.144 -0.103 -0.035    0.046  0.150  0.070
 O         -0.001  0.006  0.013   -0.145 -0.075  0.011   -0.077 -0.058  0.009
 H         -0.235  0.409  0.189   -0.237  0.069 -0.021   -0.092 -0.181 -0.076
 H          0.220 -0.354  0.270   -0.188  0.156 -0.022    0.422  0.327 -0.147
 H         -0.065 -0.059  0.069   -0.011 -0.051 -0.015    0.489  0.208 -0.227
 TransDip  -0.013 -0.035  0.037    0.085  0.059 -0.013    0.238  0.170 -0.018

 Mode:                 7                      8                      9
 Frequency:      1092.63                1164.55                1295.81
 Force Cnst:      2.1428                 1.4905                 1.2394
 Red. Mass:       3.0464                 1.8654                 1.2528
 IR Active:          YES                    YES                    YES
 IR Intens:       26.970                  8.641                  7.132
 Raman Active:       YES                    YES                    YES
               X      Y      Z        X      Y      Z        X      Y      Z
 C         -0.106  0.190 -0.021   -0.028 -0.086  0.090    0.007  0.035  0.108
 C          0.313 -0.061  0.008    0.066  0.161 -0.132   -0.018 -0.049 -0.080
 H          0.086 -0.087  0.007   -0.254  0.208 -0.163    0.045 -0.073 -0.182
 H         -0.460  0.163  0.007    0.099  0.172 -0.154   -0.233  0.220 -0.087
 H         -0.451  0.167 -0.017    0.459 -0.173 -0.004    0.157 -0.250 -0.064
 O         -0.135 -0.090  0.005   -0.049 -0.081  0.035   -0.009  0.012  0.003
 H          0.339 -0.112  0.002    0.326  0.485  0.028   -0.529  0.074  0.037
 H          0.367 -0.089  0.025   -0.041 -0.147  0.151    0.566 -0.147  0.032
 H         -0.208 -0.151  0.045   -0.259 -0.154  0.092    0.271  0.139 -0.113
 TransDip   0.163  0.033 -0.000    0.041  0.070 -0.048    0.077  0.029 -0.023

 Mode:                10                     11                     12
 Frequency:      1391.37                1423.00                1447.19
 Force Cnst:      1.4107                 1.4391                 1.6485
 Red. Mass:       1.2368                 1.2062                 1.3360
 IR Active:          YES                    YES                    YES
 IR Intens:        2.415                 39.489                 27.426
 Raman Active:       YES                    YES                    YES
               X      Y      Z        X      Y      Z        X      Y      Z
 C          0.002  0.054 -0.008   -0.046  0.044 -0.012   -0.131  0.054 -0.007
 C         -0.093 -0.037 -0.052   -0.082  0.029  0.046    0.090 -0.026 -0.016
 H          0.152 -0.163 -0.039    0.193 -0.248  0.148    0.240 -0.431  0.074
 H          0.060 -0.067  0.089    0.172 -0.100  0.126    0.459 -0.053  0.097
 H         -0.036 -0.092 -0.083    0.303 -0.081 -0.089    0.472 -0.065 -0.105
 O         -0.023 -0.002  0.056    0.031 -0.020 -0.043   -0.012  0.014  0.014
 H          0.735  0.105 -0.054    0.178 -0.055 -0.019   -0.251 -0.016  0.024
 H          0.099 -0.198  0.088    0.610  0.168 -0.050   -0.395 -0.089  0.017
 H          0.442  0.246 -0.173   -0.428 -0.234  0.157    0.146  0.090 -0.058
 TransDip   0.027  0.025 -0.033   -0.173 -0.098  0.030    0.167  0.010 -0.014

 Mode:                13                     14                     15
 Frequency:      1514.99                1525.77                1546.52
 Force Cnst:      1.4146                 1.4446                 1.5351
 Red. Mass:       1.0461                 1.0533                 1.0894
 IR Active:          YES                    YES                    YES
 IR Intens:        6.015                  2.526                  0.495
 Raman Active:       YES                    YES                    YES
               X      Y      Z        X      Y      Z        X      Y      Z
 C          0.010  0.003 -0.046   -0.009 -0.043 -0.007   -0.009 -0.028 -0.001
 C          0.009 -0.008 -0.030   -0.024  0.038 -0.008   -0.011 -0.080  0.002
 H         -0.043  0.191  0.654    0.119 -0.165  0.185    0.111 -0.169  0.097
 H         -0.510 -0.233  0.184   -0.077  0.321 -0.336   -0.035  0.269 -0.273
 H          0.396 -0.008 -0.061    0.164  0.480  0.262    0.089  0.365  0.202
 O         -0.006  0.001  0.010    0.004  0.006 -0.000   -0.004 -0.004  0.006
 H         -0.031  0.080  0.017    0.034 -0.366 -0.218    0.080  0.489  0.284
 H         -0.037 -0.028 -0.015    0.067 -0.310  0.300    0.015  0.360 -0.391
 H          0.093  0.041 -0.029    0.014  0.016 -0.009    0.048  0.026 -0.021
 TransDip   0.035  0.022  0.067    0.025  0.038  0.023    0.011  0.020 -0.002

 Mode:                16                     17                     18
 Frequency:      3060.76                3062.65                3111.49
 Force Cnst:      5.7557                 5.8349                 6.2743
 Red. Mass:       1.0428                 1.0558                 1.1000
 IR Active:          YES                    YES                    YES
 IR Intens:       48.265                 34.350                  1.485
 Raman Active:       YES                    YES                    YES
               X      Y      Z        X      Y      Z        X      Y      Z
 C         -0.035  0.024  0.006    0.018 -0.023  0.006    0.011  0.016  0.060
 C         -0.004  0.029 -0.023   -0.009  0.047 -0.034   -0.000 -0.029 -0.060
 H          0.388  0.291 -0.048   -0.186 -0.133  0.024   -0.108 -0.079  0.026
 H         -0.001 -0.373 -0.398   -0.001  0.221  0.242    0.004 -0.339 -0.351
 H          0.018 -0.198  0.376   -0.017  0.177 -0.337   -0.020  0.227 -0.395
 O          0.001  0.001 -0.000    0.002  0.001 -0.001   -0.000  0.001  0.001
 H          0.037 -0.226  0.436    0.061 -0.348  0.668    0.021 -0.121  0.207
 H          0.000 -0.127 -0.151    0.006 -0.224 -0.262   -0.019  0.463  0.504
 H         -0.001 -0.001  0.000    0.002  0.003  0.006    0.003 -0.009 -0.014
 TransDip  -0.100  0.189 -0.060    0.041  0.138 -0.120    0.033 -0.013 -0.017

 Mode:                19                     20                     21
 Frequency:      3136.50                3142.03                3702.37
 Force Cnst:      6.4071                 6.4103                 8.6106
 Red. Mass:       1.1054                 1.1021                 1.0662
 IR Active:          YES                    YES                    YES
 IR Intens:       72.305                 40.841                  8.235
 Raman Active:       YES                    YES                    YES
               X      Y      Z        X      Y      Z        X      Y      Z
 C         -0.004 -0.008 -0.067   -0.052 -0.073  0.019   -0.000  0.001  0.000
 C         -0.001 -0.022 -0.061   -0.000 -0.011 -0.003    0.002 -0.001 -0.003
 H          0.018  0.009 -0.014    0.672  0.480 -0.083    0.003  0.001  0.000
 H         -0.006  0.353  0.359   -0.012  0.204  0.236   -0.002 -0.001 -0.003
 H          0.028 -0.260  0.457   -0.032  0.196 -0.385   -0.000 -0.000 -0.000
 O         -0.000  0.001  0.001    0.000  0.001  0.000   -0.001 -0.043 -0.046
 H          0.031 -0.152  0.275   -0.005  0.025 -0.048    0.003  0.001  0.003
 H         -0.020  0.405  0.442   -0.004  0.081  0.088   -0.002  0.011  0.016
 H          0.009 -0.005 -0.012    0.005 -0.002 -0.002   -0.002  0.672  0.738
 TransDip  -0.009 -0.060 -0.266   -0.110 -0.171  0.024    0.037  0.066  0.052

 STANDARD THERMODYNAMIC QUANTITIES AT   298.15 K  AND     1.00 ATM

   This Molecule has  0 Imaginary Frequencies
   Zero point vibrational energy:       50.691 kcal/mol

   Atom    1 Element C  Has Mass   12.00000
   Atom    2 Element C  Has Mass   12.00000
   Atom    3 Element H  Has Mass    1.00783
   Atom    4 Element H  Has Mass    1.00783
   Atom    5 Element H  Has Mass    1.00783
   Atom    6 Element O  Has Mass   15.99491
   Atom    7 Element H  Has Mass    1.00783
   Atom    8 Element H  Has Mass    1.00783
   Atom    9 Element H  Has Mass    1.00783
   Molecular Mass:    46.041890 amu
   Principal axes and moments of inertia in amu*Bohr^2:
                             1           2           3
    Eigenvalues --       54.18115   189.20073   216.86195
          X               0.99970    -0.01597     0.01859
          Y               0.01495     0.99844     0.05372
          Z              -0.01942    -0.05342     0.99838
   Rotational Symmetry Number is   1
   The Molecule is an Asymmetric Top
   Translational Enthalpy:        0.889 kcal/mol
   Rotational Enthalpy:           0.889 kcal/mol
   Vibrational Enthalpy:         51.551 kcal/mol
   gas constant (RT):             0.592 kcal/mol
   Translational Entropy:        37.406  cal/mol.K
   Rotational Entropy:           22.324  cal/mol.K
   Vibrational Entropy:           4.367  cal/mol.K

   Total Enthalpy:               53.921 kcal/mol
   Total Entropy:                64.096  cal/mol.K
Archival summary:
1\1\node018\FREQ\ProcedureUnspecified\6-31G*\126\guest94\MonMar918:26:002020MonMar918:26:002020\0\\#,FREQ,ProcedureUnspecified,6-31G*,\\0,1\C\H,1,1.09388\H,1,1.0942,2,108.385\O,1,1.42015,2,108.175,3,-117.713,0\H,4,0.97247,1,107.534,2,178.982,0\C,1,1.5146,2,110.482,3,121.855,0\H,6,1.09356,1,110.885,2,-60.0256,0\H,6,1.09496,1,110.592,2,60.8316,0\H,6,1.09496,1,110.716,2,179.134,0\\\@

 Total job time:  25.26s(wall), 30.37s(cpu) 
 Mon Mar  9 18:26:00 2020

        *************************************************************
        *                                                           *
        *  Thank you very much for using Q-Chem.  Have a nice day.  *
        *                                                           *
        *************************************************************


