                  Welcome to Q-Chem
     A Quantum Leap Into The Future Of Chemistry


 Q-Chem 5.2 (devel), Q-Chem, Inc., Pleasanton, CA (2019)

 Yihan Shao,  Zhengting Gan,  E. Epifanovsky,  A. T. B. Gilbert,  M. Wormit,  
 J. Kussmann,  A. W. Lange,  A. Behn,  Jia Deng,  Xintian Feng,  D. Ghosh,  
 M. Goldey,  P. R. Horn,  L. D. Jacobson,  I. Kaliman,  T. Kus,  A. Landau,  
 Jie Liu,  E. I. Proynov,  R. M. Richard,  R. P. Steele,  E. J. Sundstrom,  
 H. L. Woodcock III,  P. M. Zimmerman,  D. Zuev,  B. Albrecht,  E. Alguire,  
 S. A. Baeppler,  D. Barton,  Z. Benda,  Y. A. Bernard,  E. J. Berquist,  
 K. B. Bravaya,  H. Burton,  D. Casanova,  Chun-Min Chang,  Yunqing Chen,  
 A. Chien,  K. D. Closser,  M. P. Coons,  S. Coriani,  S. Dasgupta,  
 A. L. Dempwolff,  M. Diedenhofen,  Hainam Do,  R. G. Edgar,  Po-Tung Fang,  
 S. Faraji,  S. Fatehi,  Qingguo Feng,  K. D. Fenk,  J. Fosso-Tande,  
 J. Gayvert,  Qinghui Ge,  A. Ghysels,  G. Gidofalvi,  J. Gomes,  
 J. Gonthier,  A. Gunina,  D. Hait,  M. W. D. Hanson-Heine,  
 P. H. P. Harbach,  A. W. Hauser,  M. F. Herbst,  J. E. Herr,  
 E. G. Hohenstein,  Z. C. Holden,  Kerwin Hui,  B. C. Huynh,  T.-C. Jagau,  
 Hyunjun Ji,  B. Kaduk,  K. Khistyaev,  Jaehoon Kim,  P. Klunzinger,  K. Koh,  
 D. Kosenkov,  L. Koulias,  T. Kowalczyk,  C. M. Krauter,  A. Kunitsa,  
 Ka Un Lao,  A. Laurent,  K. V. Lawler,  Joonho Lee,  D. Lefrancois,  
 S. Lehtola,  D. S. Levine,  Yi-Pei Li,  You-Sheng Lin,  Fenglai Liu,  
 E. Livshits,  A. Luenser,  P. Manohar,  E. Mansoor,  S. F. Manzer,  
 Shan-Ping Mao,  Yuezhi Mao,  N. Mardirossian,  A. V. Marenich,  
 T. Markovich,  L. A. Martinez-Martinez,  S. A. Maurer,  N. J. Mayhall,  
 S. C. McKenzie,  J.-M. Mewes,  P. Morgante,  A. F. Morrison,  
 J. W. Mullinax,  K. Nanda,  T. S. Nguyen-Beck,  R. Olivares-Amaya,  
 J. A. Parkhill,  Zheng Pei,  T. M. Perrine,  F. Plasser,  P. Pokhilko,  
 S. Prager,  A. Prociuk,  E. Ramos,  D. R. Rehn,  F. Rob,  M. Scheurer,  
 M. Schneider,  N. Sergueev,  S. M. Sharada,  S. Sharma,  D. W. Small,  
 T. Stauch,  T. Stein,  Yu-Chuan Su,  A. J. W. Thom,  A. Tkatchenko,  
 T. Tsuchimochi,  N. M. Tubman,  L. Vogt,  M. L. Vidal,  O. Vydrov,  
 M. A. Watson,  J. Wenzel,  M. de Wergifosse,  T. A. Wesolowski,  A. White,  
 J. Witte,  A. Yamada,  Jun Yang,  K. Yao,  S. Yeganeh,  S. R. Yost,  
 Zhi-Qiang You,  A. Zech,  Igor Ying Zhang,  Xing Zhang,  Yan Zhao,  
 Ying Zhu,  B. R. Brooks,  G. K. L. Chan,  C. J. Cramer,  M. S. Gordon,  
 W. J. Hehre,  A. Klamt,  M. W. Schmidt,  C. D. Sherrill,  D. G. Truhlar,  
 A. Aspuru-Guzik,  R. Baer,  A. T. Bell,  N. A. Besley,  Jeng-Da Chai,  
 A. E. DePrince, III,  R. A. DiStasio Jr.,  A. Dreuw,  B. D. Dunietz,  
 T. R. Furlani,  Chao-Ping Hsu,  Yousung Jung,  Jing Kong,  D. S. Lambrecht,  
 WanZhen Liang,  C. Ochsenfeld,  V. A. Rassolov,  L. V. Slipchenko,  
 J. E. Subotnik,  T. Van Voorhis,  J. M. Herbert,  A. I. Krylov,  
 P. M. W. Gill,  M. Head-Gordon

 Contributors to earlier versions of Q-Chem not listed above: 
 R. D. Adamson,  B. Austin,  J. Baker,  G. J. O. Beran,  K. Brandhorst,  
 S. T. Brown,  E. F. C. Byrd,  A. K. Chakraborty,  C.-L. Cheng,  
 Siu Hung Chien,  D. M. Chipman,  D. L. Crittenden,  H. Dachsel,  
 R. J. Doerksen,  A. D. Dutoi,  L. Fusti-Molnar,  W. A. Goddard III,  
 A. Golubeva-Zadorozhnaya,  S. R. Gwaltney,  G. Hawkins,  A. Heyden,  
 S. Hirata,  G. Kedziora,  F. J. Keil,  C. Kelley,  Jihan Kim,  R. A. King,  
 R. Z. Khaliullin,  P. P. Korambath,  W. Kurlancheek,  A. M. Lee,  M. S. Lee,  
 S. V. Levchenko,  Ching Yeh Lin,  D. Liotard,  R. C. Lochan,  I. Lotan,  
 P. E. Maslen,  N. Nair,  D. P. O'Neill,  D. Neuhauser,  E. Neuscamman,  
 C. M. Oana,  R. Olson,  B. Peters,  R. Peverati,  P. A. Pieniazek,  
 Y. M. Rhee,  J. Ritchie,  M. A. Rohrdanz,  E. Rosta,  N. J. Russ,  
 H. F. Schaefer III,  N. E. Schultz,  N. Shenvi,  A. C. Simmonett,  A. Sodt,  
 D. Stuck,  K. S. Thanthiriwatte,  V. Vanovschi,  Tao Wang,  A. Warshel,  
 C. F. Williams,  Q. Wu,  X. Xu,  W. Zhang

 Please cite Q-Chem as follows:
 Y. Shao et al., Mol. Phys. 113, 184-215 (2015)
 DOI: 10.1080/00268976.2014.952696

 Q-Chem 5.2.1 for Intel X86 EM64T Linux

 Parts of Q-Chem use Armadillo 8.300.2 (Tropical Shenanigans).
 http://arma.sourceforge.net/

 Q-Chem begins on Mon Mar  9 18:26:16 2020  

Host: node019
0

     Scratch files written to /tmp/ypli/105349.h81/qchem7168//
NAlpha2: 26
NElect   26
Mult     1

Checking the input file for inconsistencies... 	...done.

--------------------------------------------------------------
User input:
--------------------------------------------------------------
$rem
jobtype = freq
exchange = b3lyp
basis = 6-31g*
$end

$molecule
0 1
C     -6.62263846    0.46221271   -0.33817347
C     -5.80536473    1.50582662   -0.48256655
H     -5.95307702    2.11252249    1.32570498
H     -7.10497761    0.22864052    0.60382771
H     -6.82712555   -0.19105383   -1.18078822
O     -5.48782084    2.38142251    0.51477172
H     -5.11994643    2.02144483    0.84299602
H     -5.30971154    1.76349983   -1.41101148
H     -4.71669082    1.42014844    0.99605666
$end
--------------------------------------------------------------
 ----------------------------------------------------------------
             Standard Nuclear Orientation (Angstroms)
    I     Atom           X                Y                Z
 ----------------------------------------------------------------
    1      C       1.2667000951    -0.2264866608    -0.0125103622
    2      C       0.1407387797     0.4877445500    -0.0117369922
    3      H      -1.0306609724    -1.0067829509    -0.2440189228
    4      H       1.2702343771    -1.3044493923    -0.1245688516
    5      H       2.2263499583     0.2680702967     0.1017582464
    6      O      -1.1094458069    -0.0418570726    -0.1486549607
    7      H      -1.1637793561    -0.2995052071     0.4020827327
    8      H       0.1065883907     1.5651542213     0.0982616769
    9      H      -0.9777991906    -0.4551777219     1.1012089311
 ----------------------------------------------------------------
 Molecular Point Group                 C1    NOp =  1
 Largest Abelian Subgroup              C1    NOp =  1
 Nuclear Repulsion Energy =          89.47710622 hartrees
 There are       13 alpha and       13 beta electrons
 Requested basis set is 6-31G(d)
 There are 24 shells and 57 basis functions

 Total QAlloc Memory Limit   2000 MB
 Mega-Array Size       188 MB
 MEM_STATIC part       192 MB

                       Distance Matrix (Angstroms)
             C (  1)   C (  2)   H (  3)   H (  4)   H (  5)   O (  6)
   C (  2)  1.333385
   H (  3)  2.437278  1.913046
   H (  4)  1.083777  2.121427  2.323143
   H (  5)  1.085620  2.100217  3.514674  1.854238
   O (  6)  2.387193  1.364619  0.972822  2.693993  3.359508
   H (  7)  2.466668  1.578853  0.967166  2.685460  3.450408  0.610448
   H (  8)  2.137313  1.083549  2.832905  3.104569  2.485121  2.030318
   H (  9)  2.516038  1.838173  1.454889  2.697675  3.433447  1.322998
             H (  7)   H (  8)
   H (  8)  2.276641
   H (  9)  0.740000  2.502707
 
 A cutoff of  1.0D-11 yielded    299 shell pairs
 There are      1733 function pairs
 Smallest overlap matrix eigenvalue = 3.78E-03
 Guess from superposition of atomic densities
 Warning:  Energy on first SCF cycle will be non-variational
 SAD guess density has 26.000000 electrons

 -----------------------------------------------------------------------
  General SCF calculation program by
  Eric Jon Sundstrom, Paul Horn, Yuezhi Mao, Dmitri Zuev, Alec White,
  David Stuck, Shaama M.S., Shane Yost, Joonho Lee, David Small,
  Daniel Levine, Susi Lehtola, Hugh Burton, Evgeny Epifanovsky,
  Bang C. Huynh
 -----------------------------------------------------------------------
 Exchange:     0.2000 Hartree-Fock + 0.0800 Slater + 0.7200 B88
 Correlation:  0.1900 VWN1RPA + 0.8100 LYP
 Using SG-1 standard quadrature grid
 using 2 threads for integral computing
 -------------------------------------------------------
 OpenMP Integral computing Module                
 Release: version 2.0, May 2017, Q-Chem Inc. Pleasanton 
 -------------------------------------------------------
 A restricted SCF calculation will be
 performed using DIIS
 SCF converges when DIIS error is below 1.0e-08
 ---------------------------------------
  Cycle       Energy         DIIS error
 ---------------------------------------
    1    -155.7679619652      1.49e-01  
    2    -154.1503744000      1.65e-02  
    3    -154.1283212568      1.84e-02  
    4    -154.2528248879      2.09e-03  
    5    -154.2539132335      1.28e-03  
    6    -154.2545862360      3.14e-04  
    7    -154.2546204228      7.45e-05  
    8    -154.2546227243      1.20e-05  
    9    -154.2546227955      3.79e-06  
   10    -154.2546228064      9.60e-07  
   11    -154.2546228081      4.09e-07  
   12    -154.2546228083      8.77e-08  
   13    -154.2546228084      1.15e-08  
   14    -154.2546228083      2.07e-09  Convergence criterion met
 ---------------------------------------
 SCF time:   CPU 5.43s  wall 3.00s 
 SCF   energy in the final basis set =     -154.2546228083
 Total energy in the final basis set =     -154.2546228083
 
 --------------------------------------------------------------
 
                    Orbital Energies (a.u.)
 --------------------------------------------------------------
 
 Alpha MOs
 -- Occupied --
-19.2637 -10.2856 -10.2177  -1.3678  -0.8370  -0.7306  -0.6732  -0.5656
 -0.5497  -0.4510  -0.4245  -0.3049  -0.1295
 -- Virtual --
 -0.0172   0.0471   0.0992   0.1154   0.1435   0.2427   0.3197   0.3366
  0.4534   0.5056   0.5748   0.5915   0.6212   0.6566   0.6786   0.7022
  0.8309   0.8345   0.8887   0.9447   1.0710   1.0823   1.1404   1.2122
  1.3304   1.4146   1.5421   1.6345   1.6875   1.7357   1.8415   1.9129
  2.0804   2.1751   2.2341   2.3140   2.4415   2.5316   2.7351   2.8612
  3.6363   4.0328   4.0883   4.2738
 --------------------------------------------------------------
 
          Ground-State Mulliken Net Atomic Charges

     Atom                 Charge (a.u.)
  ----------------------------------------
      1 C                    -0.288772
      2 C                     0.037812
      3 H                     0.160905
      4 H                     0.173911
      5 H                     0.170925
      6 O                    -0.007199
      7 H                     0.141702
      8 H                     0.195281
      9 H                    -0.584566
  ----------------------------------------
  Sum of atomic charges =     0.000000

 -----------------------------------------------------------------
                    Cartesian Multipole Moments
 -----------------------------------------------------------------
    Charge (ESU x 10^10)
                -0.0000
    Dipole Moment (Debye)
         X       1.8205      Y       1.0370      Z      -2.9950
       Tot       3.6550
    Quadrupole Moments (Debye-Ang)
        XX     -19.9516     XY      -0.8545     YY     -18.7000
        XZ       3.3237     YZ       2.7261     ZZ     -26.3810
    Octopole Moments (Debye-Ang^2)
       XXX       4.4832    XXY       1.0112    XYY       0.7843
       YYY       4.2793    XXZ      -3.9422    XYZ      -2.1089
       YYZ      -3.3705    XZZ       2.6641    YZZ       3.2196
       ZZZ     -11.0696
    Hexadecapole Moments (Debye-Ang^3)
      XXXX    -145.9901   XXXY      -0.7010   XXYY     -34.0889
      XYYY      -4.4491   YYYY     -49.5652   XXXZ       9.2708
      XXYZ       3.8660   XYYZ       3.6142   YYYZ       5.2231
      XXZZ     -38.6371   XYZZ      -3.4293   YYZZ     -17.9838
      XZZZ      11.7747   YZZZ       5.9548   ZZZZ     -47.9382
 -----------------------------------------------------------------
 Calculating MO derivatives via CPSCF
    1     0    30    0.0669228  
    2     0    30    0.0080242  
    3     0    30    0.0005363  
    4    14    16    0.0000204  
    5    30     0    0.0000004  Converged
 Time for AOints: 0.4 s (CPU) 0.2 s (wall)
 ------------------------------------------------------------------------------
                     AOints        : Timing summary (seconds)
 ------------------------------------------------------------------------------
     job step          cpu (% of tot)      sys (% of tot)     wall (% of tot)
 ------------------------------------------------------------------------------
  AOints            0.3830E+00 ( 4.0)   0.4000E-05 (11.8)   0.2117E+00 ( 4.3)
 ------------------------------------------------------------------------------
   Grand Totals     0.9676E+01          0.3400E-04          0.4956E+01
 ------------------------------------------------------------------------------
 Polarizability Matrix (a.u.)
            1           2           3
    1 -39.4790033   0.5412400   1.7337368
    2   0.5412400 -31.0498319  -3.6557946
    3   1.7337368  -3.6557946 -24.9144065
 Calculating analytic Hessian of the SCF energy
 
 Direct stationary perturbation theory relativistic correction:
 
 rels  =       0.047700407254
 relv  =      -0.200404196286
 rel2e =       0.073567224619
 E_rel =      -0.079136564413
 
 Hessian of the SCF Energy
            1           2           3           4           5           6
    1   0.7893219  -0.0904987   0.0370170  -0.4183708   0.2025751  -0.0439045
    2  -0.0904987   0.7263025   0.0546996   0.2208343  -0.2593007  -0.0084180
    3   0.0370170   0.0546996   0.1034254  -0.0016964  -0.0141818  -0.0156694
    4  -0.4183708   0.2208343  -0.0016964   0.8442456  -0.0869155  -0.0072487
    5   0.2025751  -0.2593007  -0.0141818  -0.0869155   0.7599215   0.0615484
    6  -0.0439045  -0.0084180  -0.0156694  -0.0072487   0.0615484  -0.0109901
    7  -0.0012770  -0.0005078   0.0010079   0.0097359  -0.0380463  -0.0149174
    8   0.0028098  -0.0006889   0.0051385  -0.0185427  -0.0051824  -0.0220729
    9   0.0052758  -0.0025529  -0.0056982   0.0045362   0.0038004   0.0239774
   10  -0.0547624  -0.0060165  -0.0022871  -0.0004753   0.0293364   0.0019171
   11   0.0022940  -0.3498813  -0.0305950  -0.0047689  -0.0138691  -0.0003313
   12  -0.0041957  -0.0285476  -0.0364241  -0.0031983   0.0002271  -0.0065496
   13  -0.2804337  -0.1165528  -0.0309858  -0.0189555  -0.0147269  -0.0015255
   14  -0.1212767  -0.1213084  -0.0177984   0.0138741   0.0104104   0.0025767
   15  -0.0245641  -0.0180983  -0.0357028   0.0025546  -0.0008368   0.0144603
   16  -0.0138732  -0.0272995  -0.0260628  -0.2784166  -0.0738746   0.0376693
   17   0.0308781   0.0094844  -0.0242607  -0.0961142  -0.1267967   0.0691783
   18  -0.0028106   0.0163484   0.0082627   0.0043846  -0.0267872  -0.0604618
   19  -0.0033620  -0.0048517   0.0018037  -0.0801822  -0.0491353   0.0564134
   20  -0.0119808   0.0024475   0.0134989  -0.0297686  -0.0133150  -0.0248945
   21   0.0280709  -0.0094920  -0.0216661  -0.0144539  -0.0033829   0.0940243
   22   0.0047137   0.0269174   0.0024965  -0.0525995   0.0230227   0.0025056
   23  -0.0007217  -0.0096100  -0.0010119   0.0144015  -0.3501425  -0.0331001
   24   0.0037332  -0.0007116   0.0021399  -0.0003641  -0.0315037  -0.0322590
   25  -0.0219565  -0.0020248   0.0187069  -0.0049818   0.0077644  -0.0309093
   26  -0.0140790   0.0025550   0.0145109  -0.0130001  -0.0017254  -0.0444866
   27   0.0013778  -0.0032277   0.0013325   0.0154861   0.0111164  -0.0065320
            7           8           9          10          11          12
    1  -0.0012770   0.0028098   0.0052758  -0.0547624   0.0022940  -0.0041957
    2  -0.0005078  -0.0006889  -0.0025529  -0.0060165  -0.3498813  -0.0285476
    3   0.0010079   0.0051385  -0.0056982  -0.0022871  -0.0305950  -0.0364241
    4   0.0097359  -0.0185427   0.0045362  -0.0004753  -0.0047689  -0.0031983
    5  -0.0380463  -0.0051824   0.0038004   0.0293364  -0.0138691   0.0002271
    6  -0.0149174  -0.0220729   0.0239774   0.0019171  -0.0003313  -0.0065496
    7  -0.0063104  -0.0441623  -0.0324611  -0.0011509   0.0005589  -0.0009228
    8  -0.0441623   0.3502198   0.1816908  -0.0004511   0.0010081  -0.0018021
    9  -0.0324611   0.1816908   0.0321009   0.0003675   0.0002132   0.0028507
   10  -0.0011509  -0.0004511   0.0003675   0.0524212  -0.0006692   0.0018563
   11   0.0005589   0.0010081   0.0002132  -0.0006692   0.3672656   0.0323628
   12  -0.0009228  -0.0018021   0.0028507   0.0018563   0.0323628   0.0250078
   13  -0.0002336  -0.0012892   0.0004910   0.0037771   0.0018036   0.0004873
   14  -0.0005827  -0.0005027   0.0003563  -0.0248068  -0.0075591  -0.0024217
   15   0.0010753   0.0026758  -0.0030144  -0.0016566  -0.0011233   0.0033989
   16  -0.0295751   0.0419863  -0.0073358   0.0055661  -0.0004151   0.0123831
   17   0.0460763  -0.2417826  -0.0729016   0.0012359   0.0002528   0.0123787
   18   0.0280835   0.0716317   0.0104731  -0.0003253  -0.0017503  -0.0121425
   19   0.0410397   0.0203818   0.0247888  -0.0017821  -0.0002646   0.0011306
   20   0.0370265  -0.1170099  -0.1385159  -0.0004883   0.0010505  -0.0059380
   21   0.0182127  -0.1847842  -0.0536042   0.0006113   0.0003925   0.0114534
   22  -0.0042297   0.0062093   0.0008746  -0.0036096   0.0023373  -0.0003013
   23  -0.0009311   0.0042026   0.0002822   0.0020719   0.0007062  -0.0009154
   24  -0.0003872  -0.0006202  -0.0009631  -0.0006653  -0.0010449   0.0119014
   25  -0.0079990  -0.0069418   0.0034631   0.0000159  -0.0008759  -0.0072391
   26   0.0005685   0.0097360   0.0276274  -0.0002123   0.0010263  -0.0053438
   27   0.0003091  -0.0518574  -0.0061221   0.0001822   0.0018762   0.0005039
           13          14          15          16          17          18
    1  -0.2804337  -0.1212767  -0.0245641  -0.0138732   0.0308781  -0.0028106
    2  -0.1165528  -0.1213084  -0.0180983  -0.0272995   0.0094844   0.0163484
    3  -0.0309858  -0.0177984  -0.0357028  -0.0260628  -0.0242607   0.0082627
    4  -0.0189555   0.0138741   0.0025546  -0.2784166  -0.0961142   0.0043846
    5  -0.0147269   0.0104104  -0.0008368  -0.0738746  -0.1267967  -0.0267872
    6  -0.0015255   0.0025767   0.0144603   0.0376693   0.0691783  -0.0604618
    7  -0.0002336  -0.0005827   0.0010753  -0.0295751   0.0460763   0.0280835
    8  -0.0012892  -0.0005027   0.0026758   0.0419863  -0.2417826   0.0716317
    9   0.0004910   0.0003563  -0.0030144  -0.0073358  -0.0729016   0.0104731
   10   0.0037771  -0.0248068  -0.0016566   0.0055661   0.0012359  -0.0003253
   11   0.0018036  -0.0075591  -0.0011233  -0.0004151   0.0002528  -0.0017503
   12   0.0004873  -0.0024217   0.0033989   0.0123831   0.0123787  -0.0121425
   13   0.2952058   0.1267231   0.0310919   0.0021979   0.0038360   0.0000105
   14   0.1267231   0.1179856   0.0178848   0.0064424  -0.0002260  -0.0050869
   15   0.0310919   0.0178848   0.0240918  -0.0135750  -0.0138556   0.0170166
   16   0.0021979   0.0064424  -0.0135750  -0.9086305   0.2841410  -0.4728530
   17   0.0038360  -0.0002260  -0.0138556   0.2841410   0.2632443  -2.7036973
   18   0.0000105  -0.0050869   0.0170166  -0.4728530  -2.7036973   4.3489345
   19  -0.0023877   0.0003591  -0.0025025   1.1304991  -0.2539259   0.4836802
   20   0.0000578   0.0002355   0.0065763  -0.2688088   0.0163580   2.5966975
   21  -0.0013502   0.0020366  -0.0121548   0.5237817   2.5861413  -4.1417911
   22   0.0009078   0.0000153   0.0001297  -0.0121994  -0.0464597  -0.0069425
   23   0.0003212   0.0009388   0.0006832  -0.0053201  -0.0120075  -0.0013728
   24   0.0004270   0.0007323  -0.0073910  -0.0051542  -0.0097238   0.0064784
   25  -0.0000782  -0.0007477   0.0074467   0.1044316   0.0303325  -0.0332273
   26  -0.0001726   0.0000259   0.0060939   0.0431483   0.0914734   0.0540168
   27   0.0013539   0.0017203  -0.0007046  -0.0488531   0.1567408  -0.1767700
           19          20          21          22          23          24
    1  -0.0033620  -0.0119808   0.0280709   0.0047137  -0.0007217   0.0037332
    2  -0.0048517   0.0024475  -0.0094920   0.0269174  -0.0096100  -0.0007116
    3   0.0018037   0.0134989  -0.0216661   0.0024965  -0.0010119   0.0021399
    4  -0.0801822  -0.0297686  -0.0144539  -0.0525995   0.0144015  -0.0003641
    5  -0.0491353  -0.0133150  -0.0033829   0.0230227  -0.3501425  -0.0315037
    6   0.0564134  -0.0248945   0.0940243   0.0025056  -0.0331001  -0.0322590
    7   0.0410397   0.0370265   0.0182127  -0.0042297  -0.0009311  -0.0003872
    8   0.0203818  -0.1170099  -0.1847842   0.0062093   0.0042026  -0.0006202
    9   0.0247888  -0.1385159  -0.0536042   0.0008746   0.0002822  -0.0009631
   10  -0.0017821  -0.0004883   0.0006113  -0.0036096   0.0020719  -0.0006653
   11  -0.0002646   0.0010505   0.0003925   0.0023373   0.0007062  -0.0010449
   12   0.0011306  -0.0059380   0.0114534  -0.0003013  -0.0009154   0.0119014
   13  -0.0023877   0.0000578  -0.0013502   0.0009078   0.0003212   0.0004270
   14   0.0003591   0.0002355   0.0020366   0.0000153   0.0009388   0.0007323
   15  -0.0025025   0.0065763  -0.0121548   0.0001297   0.0006832  -0.0073910
   16   1.1304991  -0.2688088   0.5237817  -0.0121994  -0.0053201  -0.0051542
   17  -0.2539259   0.0163580   2.5861413  -0.0464597  -0.0120075  -0.0097238
   18   0.4836802   2.5966975  -4.1417911  -0.0069425  -0.0013728   0.0064784
   19  -1.1485285   0.2646809  -0.4551956  -0.0020278  -0.0004058  -0.0005989
   20   0.2646809   0.0553919  -2.5341261  -0.0026780  -0.0013675   0.0030002
   21  -0.4551956  -2.5341261   4.5380238  -0.0021984  -0.0005840  -0.0071300
   22  -0.0020278  -0.0026780  -0.0021984   0.0675299  -0.0098103   0.0016493
   23  -0.0004058  -0.0013675  -0.0005840  -0.0098103   0.3663055   0.0357727
   24  -0.0005989   0.0030002  -0.0071300   0.0016493   0.0357727   0.0276859
   25   0.0667315   0.0119593  -0.0974785   0.0015145   0.0003944   0.0013604
   26   0.0231616   0.0562090   0.1437988   0.0004461   0.0009745   0.0040991
   27  -0.1095196   0.0837016  -0.4071553   0.0017864   0.0002462  -0.0004626
           25          26          27
    1  -0.0219565  -0.0140790   0.0013778
    2  -0.0020248   0.0025550  -0.0032277
    3   0.0187069   0.0145109   0.0013325
    4  -0.0049818  -0.0130001   0.0154861
    5   0.0077644  -0.0017254   0.0111164
    6  -0.0309093  -0.0444866  -0.0065320
    7  -0.0079990   0.0005685   0.0003091
    8  -0.0069418   0.0097360  -0.0518574
    9   0.0034631   0.0276274  -0.0061221
   10   0.0000159  -0.0002123   0.0001822
   11  -0.0008759   0.0010263   0.0018762
   12  -0.0072391  -0.0053438   0.0005039
   13  -0.0000782  -0.0001726   0.0013539
   14  -0.0007477   0.0000259   0.0017203
   15   0.0074467   0.0060939  -0.0007046
   16   0.1044316   0.0431483  -0.0488531
   17   0.0303325   0.0914734   0.1567408
   18  -0.0332273   0.0540168  -0.1767700
   19   0.0667315   0.0231616  -0.1095196
   20   0.0119593   0.0562090   0.0837016
   21  -0.0974785   0.1437988  -0.4071553
   22   0.0015145   0.0004461   0.0017864
   23   0.0003944   0.0009745   0.0002462
   24   0.0013604   0.0040991  -0.0004626
   25  -0.1376780  -0.0398604   0.1378772
   26  -0.0398604  -0.1602748  -0.2003165
   27   0.1378772  -0.2003165   0.5959102
 **********************************************************************
 **                                                                  **
 **                       VIBRATIONAL ANALYSIS                       **
 **                       --------------------                       **
 **                                                                  **
 **        VIBRATIONAL FREQUENCIES (CM**-1) AND NORMAL MODES         **
 **     FORCE CONSTANTS (mDYN/ANGSTROM) AND REDUCED MASSES (AMU)     **
 **                  INFRARED INTENSITIES (KM/MOL)                   **
 **                                                                  **
 **********************************************************************
 

 Mode:                 1                      2                      3
 Frequency:     -5817.27               -5518.84               -2294.26
 Force Cnst:     21.2721                19.4518                 3.5655
 Red. Mass:       1.0669                 1.0840                 1.1497
 IR Active:          YES                    YES                    YES
 IR Intens:       28.921                242.123                618.868
 Raman Active:       YES                    YES                    YES
               X      Y      Z        X      Y      Z        X      Y      Z
 C         -0.001 -0.005  0.017    0.000  0.000 -0.005    0.008 -0.003 -0.025
 C          0.005  0.002 -0.011    0.003  0.001  0.022    0.002 -0.008  0.076
 H         -0.024 -0.040 -0.044   -0.037  0.104  0.027   -0.003  0.102 -0.284
 H         -0.004 -0.007  0.037    0.002  0.005 -0.061    0.003  0.002 -0.086
 H          0.001 -0.007  0.017    0.000 -0.006  0.028    0.007 -0.013 -0.004
 O         -0.054  0.027  0.001   -0.025 -0.047 -0.044   -0.025 -0.053 -0.034
 H          0.904 -0.388 -0.106    0.405  0.795  0.383   -0.005  0.032  0.009
 H          0.007  0.002 -0.030   -0.002 -0.006  0.081   -0.017 -0.018  0.138
 H         -0.072  0.053  0.054   -0.016 -0.164  0.040    0.293  0.870  0.161
 TransDip   0.034 -0.025  0.167   -0.073 -0.211 -0.446   -0.554 -0.565 -0.095

 Mode:                 4                      5                      6
 Frequency:     -2066.24               -1056.59                -535.88
 Force Cnst:      2.7655                 0.7290                 0.1853
 Red. Mass:       1.0994                 1.1083                 1.0951
 IR Active:          YES                    YES                    YES
 IR Intens:      489.413                272.849                 46.738
 Raman Active:       YES                    YES                    YES
               X      Y      Z        X      Y      Z        X      Y      Z
 C          0.004 -0.010  0.037   -0.006 -0.008 -0.029   -0.042 -0.037 -0.008
 C          0.000 -0.004 -0.007   -0.006  0.004  0.048   -0.006  0.058  0.024
 H          0.032 -0.005  0.030    0.331 -0.351  0.798    0.892  0.214 -0.202
 H         -0.006 -0.014  0.123   -0.013  0.006 -0.196   -0.121 -0.054  0.147
 H          0.003 -0.005  0.012   -0.005 -0.036  0.073    0.014 -0.105 -0.158
 O         -0.064  0.026 -0.012   -0.014  0.017 -0.062   -0.013 -0.019  0.007
 H          0.009 -0.007 -0.017    0.021 -0.002 -0.079    0.008 -0.008  0.020
 H          0.008  0.003 -0.067    0.025 -0.008  0.201    0.044  0.070 -0.129
 H          0.927 -0.225 -0.249    0.010  0.169 -0.042   -0.062 -0.076  0.028
 TransDip  -0.624  0.058  0.331    0.020  0.014  0.528    0.094  0.016 -0.197

 Mode:                 7                      8                      9
 Frequency:       317.53                 625.65                 910.08
 Force Cnst:      0.1100                 0.4169                 0.6411
 Red. Mass:       1.8508                 1.8075                 1.3137
 IR Active:          YES                    YES                    YES
 IR Intens:       61.388                 31.853                 24.476
 Raman Active:       YES                    YES                    YES
               X      Y      Z        X      Y      Z        X      Y      Z
 C          0.106  0.021 -0.048    0.102 -0.003  0.030    0.014  0.016 -0.155
 C          0.012 -0.097  0.185   -0.001 -0.134 -0.120   -0.001 -0.007  0.055
 H         -0.091 -0.010  0.065    0.377  0.201 -0.077    0.000  0.002  0.004
 H          0.258 -0.026  0.441    0.564  0.021 -0.227   -0.036 -0.041  0.452
 H          0.060  0.235 -0.609   -0.104  0.342  0.347   -0.057 -0.078  0.833
 O         -0.088  0.048 -0.062   -0.121  0.069  0.044   -0.004 -0.000  0.008
 H         -0.078  0.040 -0.076   -0.117  0.073  0.054   -0.003 -0.001  0.007
 H          0.051 -0.035 -0.395    0.111 -0.168  0.203    0.016  0.025 -0.243
 H         -0.208 -0.052 -0.076   -0.118  0.075  0.062   -0.014 -0.017  0.007
 TransDip  -0.207 -0.082  0.116    0.154 -0.015 -0.094   -0.038 -0.018  0.153

 Mode:                10                     11                     12
 Frequency:       984.51                1001.06                1267.37
 Force Cnst:      0.8105                 0.7135                 2.7300
 Red. Mass:       1.4193                 1.2084                 2.8848
 IR Active:          YES                    YES                    YES
 IR Intens:       17.128                 30.323                 51.690
 Raman Active:       YES                    YES                    YES
               X      Y      Z        X      Y      Z        X      Y      Z
 C         -0.133 -0.049 -0.041    0.082  0.038 -0.021    0.036 -0.145 -0.009
 C         -0.026 -0.012 -0.011    0.018  0.006 -0.069    0.119  0.303  0.002
 H          0.007  0.001  0.009   -0.008 -0.004  0.009   -0.254 -0.158  0.009
 H          0.331 -0.089  0.481   -0.252 -0.020  0.534    0.683 -0.152  0.024
 H         -0.392  0.467 -0.145    0.250 -0.257 -0.128   -0.045  0.046  0.046
 O          0.102  0.022 -0.009   -0.057 -0.009 -0.001   -0.139 -0.110 -0.003
 H          0.107  0.024 -0.009   -0.063 -0.012 -0.003   -0.166 -0.111 -0.011
 H          0.126 -0.056  0.429   -0.146 -0.076  0.671    0.273  0.324  0.102
 H          0.097  0.031 -0.002   -0.080 -0.010 -0.000   -0.126 -0.090 -0.033
 TransDip  -0.084 -0.014  0.102    0.068 -0.015  0.162    0.198  0.084  0.083

 Mode:                13                     14                     15
 Frequency:      1365.22                1464.07                1732.85
 Force Cnst:      1.2459                 1.5503                 9.0682
 Red. Mass:       1.1345                 1.2276                 5.1257
 IR Active:          YES                    YES                    YES
 IR Intens:        6.891                 12.443                 55.835
 Raman Active:       YES                    YES                    YES
               X      Y      Z        X      Y      Z        X      Y      Z
 C         -0.026  0.075  0.008    0.045 -0.051  0.000   -0.324  0.187 -0.001
 C          0.029 -0.029 -0.006    0.114  0.017 -0.000    0.457 -0.123  0.005
 H         -0.033 -0.049 -0.026    0.008 -0.003  0.009    0.051  0.010  0.030
 H         -0.311  0.084 -0.000   -0.615 -0.033 -0.060    0.377  0.253  0.024
 H         -0.039  0.087 -0.003   -0.329  0.636  0.047   -0.057 -0.414 -0.025
 O         -0.033 -0.038 -0.002   -0.038 -0.011  0.001   -0.086 -0.022 -0.000
 H         -0.037 -0.034 -0.001   -0.042 -0.013 -0.002   -0.101 -0.036 -0.007
 H          0.931 -0.009  0.051   -0.279  0.006 -0.002   -0.426 -0.205 -0.046
 H         -0.024 -0.022 -0.006   -0.041 -0.014 -0.006   -0.065 -0.023 -0.020
 TransDip   0.068  0.036  0.034    0.043  0.104  0.010    0.238  0.010 -0.024

 Mode:                16                     17                     18
 Frequency:      3184.61                3244.70                3275.86
 Force Cnst:      6.3361                 6.8112                 7.0572
 Red. Mass:       1.0604                 1.0981                 1.1162
 IR Active:          YES                    YES                    YES
 IR Intens:        0.389                  1.473                  8.352
 Raman Active:       YES                    YES                    YES
               X      Y      Z        X      Y      Z        X      Y      Z
 C         -0.065  0.023 -0.003   -0.003  0.026  0.003   -0.043 -0.086 -0.011
 C          0.007  0.006  0.002    0.008 -0.086 -0.009   -0.002 -0.020 -0.002
 H         -0.005  0.016  0.008    0.011 -0.026 -0.017    0.004 -0.012 -0.005
 H         -0.009 -0.592 -0.056   -0.000 -0.237 -0.021   -0.007  0.762  0.073
 H          0.696  0.371  0.083   -0.039 -0.021 -0.006    0.528  0.268  0.061
 O          0.000 -0.001 -0.001   -0.000  0.002  0.001    0.001  0.001  0.001
 H         -0.001 -0.004 -0.002    0.001  0.006  0.003    0.002  0.005  0.002
 H          0.002 -0.112 -0.011   -0.035  0.960  0.099   -0.009  0.221  0.020
 H          0.004 -0.000 -0.001    0.001  0.003  0.003   -0.002  0.007 -0.007
 TransDip  -0.002 -0.014 -0.014   -0.024 -0.026  0.016   -0.079 -0.023  0.042

 Mode:                19                     20                     21
 Frequency:      3551.71                4308.23               12624.78
 Force Cnst:      7.8115                11.6675                99.5874
 Red. Mass:       1.0510                 1.0669                 1.0605
 IR Active:          YES                    YES                    YES
 IR Intens:      364.803                122.218                218.426
 Raman Active:       YES                    YES                    YES
               X      Y      Z        X      Y      Z        X      Y      Z
 C          0.002 -0.001 -0.004   -0.000 -0.001  0.001    0.000 -0.000 -0.001
 C         -0.001 -0.000  0.008    0.004  0.002  0.002   -0.000  0.000  0.001
 H         -0.129  0.861  0.399    0.006 -0.195 -0.071   -0.000 -0.022  0.000
 H          0.001  0.018 -0.026    0.001  0.005  0.000    0.000  0.000  0.002
 H         -0.006 -0.003  0.007    0.005  0.003  0.000   -0.000  0.000 -0.003
 O          0.005 -0.040 -0.035   -0.008  0.029 -0.055    0.005  0.026 -0.053
 H         -0.010 -0.193 -0.067   -0.081 -0.042 -0.014   -0.075 -0.408  0.905
 H          0.020  0.037  0.034   -0.000 -0.005  0.002   -0.000 -0.000 -0.001
 H          0.041 -0.082  0.161    0.159 -0.237  0.929   -0.017  0.019 -0.070
 TransDip   0.124  0.035 -0.598   -0.049 -0.271 -0.222    0.439 -0.114 -0.134

 STANDARD THERMODYNAMIC QUANTITIES AT   298.15 K  AND     1.00 ATM

   This Molecule has  6 Imaginary Frequencies
   Zero point vibrational energy:       56.980 kcal/mol

   Atom    1 Element C  Has Mass   12.00000
   Atom    2 Element C  Has Mass   12.00000
   Atom    3 Element H  Has Mass    1.00783
   Atom    4 Element H  Has Mass    1.00783
   Atom    5 Element H  Has Mass    1.00783
   Atom    6 Element O  Has Mass   15.99491
   Atom    7 Element H  Has Mass    1.00783
   Atom    8 Element H  Has Mass    1.00783
   Atom    9 Element H  Has Mass    1.00783
   Molecular Mass:    46.041890 amu
   Principal axes and moments of inertia in amu*Bohr^2:
                             1           2           3
    Eigenvalues --       38.53811   182.22310   208.12834
          X               0.99943     0.02249    -0.02536
          Y              -0.02281     0.99966    -0.01246
          Z               0.02507     0.01303     0.99960
   Rotational Symmetry Number is   1
   The Molecule is an Asymmetric Top
   Translational Enthalpy:        0.889 kcal/mol
   Rotational Enthalpy:           0.889 kcal/mol
   Vibrational Enthalpy:         57.421 kcal/mol
   gas constant (RT):             0.592 kcal/mol
   Translational Entropy:        37.406  cal/mol.K
   Rotational Entropy:           21.907  cal/mol.K
   Vibrational Entropy:           2.127  cal/mol.K

   Total Enthalpy:               59.790 kcal/mol
   Total Entropy:                61.440  cal/mol.K
Archival summary:
1\1\node019\FREQ\ProcedureUnspecified\6-31G*\126\guest94\MonMar918:26:292020MonMar918:26:292020\0\\#,FREQ,ProcedureUnspecified,6-31G*,\\0,1\O\H,1,0.610448\H,2,0.74,1,156.747\H,2,0.967166,1,72.164,3,-115.416,0\C,1,1.36462,2,98.9065,3,8.59419,0\H,5,1.08355,1,111.543,2,-106.984,0\C,5,1.33339,1,124.45,2,73.0156,0\H,7,1.08378,5,122.384,1,-0,0\H,7,1.08562,5,120.157,1,180,0\\\@

 Total job time:  13.61s(wall), 30.35s(cpu) 
 Mon Mar  9 18:26:29 2020

        *************************************************************
        *                                                           *
        *  Thank you very much for using Q-Chem.  Have a nice day.  *
        *                                                           *
        *************************************************************


