                  Welcome to Q-Chem
     A Quantum Leap Into The Future Of Chemistry


 Q-Chem 5.2 (devel), Q-Chem, Inc., Pleasanton, CA (2019)

 Yihan Shao,  Zhengting Gan,  E. Epifanovsky,  A. T. B. Gilbert,  M. Wormit,  
 J. Kussmann,  A. W. Lange,  A. Behn,  Jia Deng,  Xintian Feng,  D. Ghosh,  
 M. Goldey,  P. R. Horn,  L. D. Jacobson,  I. Kaliman,  T. Kus,  A. Landau,  
 Jie Liu,  E. I. Proynov,  R. M. Richard,  R. P. Steele,  E. J. Sundstrom,  
 H. L. Woodcock III,  P. M. Zimmerman,  D. Zuev,  B. Albrecht,  E. Alguire,  
 S. A. Baeppler,  D. Barton,  Z. Benda,  Y. A. Bernard,  E. J. Berquist,  
 K. B. Bravaya,  H. Burton,  D. Casanova,  Chun-Min Chang,  Yunqing Chen,  
 A. Chien,  K. D. Closser,  M. P. Coons,  S. Coriani,  S. Dasgupta,  
 A. L. Dempwolff,  M. Diedenhofen,  Hainam Do,  R. G. Edgar,  Po-Tung Fang,  
 S. Faraji,  S. Fatehi,  Qingguo Feng,  K. D. Fenk,  J. Fosso-Tande,  
 J. Gayvert,  Qinghui Ge,  A. Ghysels,  G. Gidofalvi,  J. Gomes,  
 J. Gonthier,  A. Gunina,  D. Hait,  M. W. D. Hanson-Heine,  
 P. H. P. Harbach,  A. W. Hauser,  M. F. Herbst,  J. E. Herr,  
 E. G. Hohenstein,  Z. C. Holden,  Kerwin Hui,  B. C. Huynh,  T.-C. Jagau,  
 Hyunjun Ji,  B. Kaduk,  K. Khistyaev,  Jaehoon Kim,  P. Klunzinger,  K. Koh,  
 D. Kosenkov,  L. Koulias,  T. Kowalczyk,  C. M. Krauter,  A. Kunitsa,  
 Ka Un Lao,  A. Laurent,  K. V. Lawler,  Joonho Lee,  D. Lefrancois,  
 S. Lehtola,  D. S. Levine,  Yi-Pei Li,  You-Sheng Lin,  Fenglai Liu,  
 E. Livshits,  A. Luenser,  P. Manohar,  E. Mansoor,  S. F. Manzer,  
 Shan-Ping Mao,  Yuezhi Mao,  N. Mardirossian,  A. V. Marenich,  
 T. Markovich,  L. A. Martinez-Martinez,  S. A. Maurer,  N. J. Mayhall,  
 S. C. McKenzie,  J.-M. Mewes,  P. Morgante,  A. F. Morrison,  
 J. W. Mullinax,  K. Nanda,  T. S. Nguyen-Beck,  R. Olivares-Amaya,  
 J. A. Parkhill,  Zheng Pei,  T. M. Perrine,  F. Plasser,  P. Pokhilko,  
 S. Prager,  A. Prociuk,  E. Ramos,  D. R. Rehn,  F. Rob,  M. Scheurer,  
 M. Schneider,  N. Sergueev,  S. M. Sharada,  S. Sharma,  D. W. Small,  
 T. Stauch,  T. Stein,  Yu-Chuan Su,  A. J. W. Thom,  A. Tkatchenko,  
 T. Tsuchimochi,  N. M. Tubman,  L. Vogt,  M. L. Vidal,  O. Vydrov,  
 M. A. Watson,  J. Wenzel,  M. de Wergifosse,  T. A. Wesolowski,  A. White,  
 J. Witte,  A. Yamada,  Jun Yang,  K. Yao,  S. Yeganeh,  S. R. Yost,  
 Zhi-Qiang You,  A. Zech,  Igor Ying Zhang,  Xing Zhang,  Yan Zhao,  
 Ying Zhu,  B. R. Brooks,  G. K. L. Chan,  C. J. Cramer,  M. S. Gordon,  
 W. J. Hehre,  A. Klamt,  M. W. Schmidt,  C. D. Sherrill,  D. G. Truhlar,  
 A. Aspuru-Guzik,  R. Baer,  A. T. Bell,  N. A. Besley,  Jeng-Da Chai,  
 A. E. DePrince, III,  R. A. DiStasio Jr.,  A. Dreuw,  B. D. Dunietz,  
 T. R. Furlani,  Chao-Ping Hsu,  Yousung Jung,  Jing Kong,  D. S. Lambrecht,  
 WanZhen Liang,  C. Ochsenfeld,  V. A. Rassolov,  L. V. Slipchenko,  
 J. E. Subotnik,  T. Van Voorhis,  J. M. Herbert,  A. I. Krylov,  
 P. M. W. Gill,  M. Head-Gordon

 Contributors to earlier versions of Q-Chem not listed above: 
 R. D. Adamson,  B. Austin,  J. Baker,  G. J. O. Beran,  K. Brandhorst,  
 S. T. Brown,  E. F. C. Byrd,  A. K. Chakraborty,  C.-L. Cheng,  
 Siu Hung Chien,  D. M. Chipman,  D. L. Crittenden,  H. Dachsel,  
 R. J. Doerksen,  A. D. Dutoi,  L. Fusti-Molnar,  W. A. Goddard III,  
 A. Golubeva-Zadorozhnaya,  S. R. Gwaltney,  G. Hawkins,  A. Heyden,  
 S. Hirata,  G. Kedziora,  F. J. Keil,  C. Kelley,  Jihan Kim,  R. A. King,  
 R. Z. Khaliullin,  P. P. Korambath,  W. Kurlancheek,  A. M. Lee,  M. S. Lee,  
 S. V. Levchenko,  Ching Yeh Lin,  D. Liotard,  R. C. Lochan,  I. Lotan,  
 P. E. Maslen,  N. Nair,  D. P. O'Neill,  D. Neuhauser,  E. Neuscamman,  
 C. M. Oana,  R. Olson,  B. Peters,  R. Peverati,  P. A. Pieniazek,  
 Y. M. Rhee,  J. Ritchie,  M. A. Rohrdanz,  E. Rosta,  N. J. Russ,  
 H. F. Schaefer III,  N. E. Schultz,  N. Shenvi,  A. C. Simmonett,  A. Sodt,  
 D. Stuck,  K. S. Thanthiriwatte,  V. Vanovschi,  Tao Wang,  A. Warshel,  
 C. F. Williams,  Q. Wu,  X. Xu,  W. Zhang

 Please cite Q-Chem as follows:
 Y. Shao et al., Mol. Phys. 113, 184-215 (2015)
 DOI: 10.1080/00268976.2014.952696

 Q-Chem 5.2.1 for Intel X86 EM64T Linux

 Parts of Q-Chem use Armadillo 8.300.2 (Tropical Shenanigans).
 http://arma.sourceforge.net/

 Q-Chem begins on Sun Mar 22 17:02:09 2020  

Host: node018
0

     Scratch files written to /tmp/ypli/106204.h81/qchem10455//
NAlpha2: 26
NElect   26
Mult     1

Checking the input file for inconsistencies... 	...done.

--------------------------------------------------------------
User input:
--------------------------------------------------------------
$rem
jobtype = freq
exchange = b3lyp
basis = 6-31g*
$end

$molecule
0 1
C      0.31166294   -0.13153812    0.55592863
C     -0.40147066    0.17616707   -0.72447180
H      1.37887060   -0.24564237    0.35221308
H     -0.07332906    1.09185031   -1.24461141
H      0.81004839   -1.18852135   -3.11645037
O     -1.29613393   -0.52501255   -1.18539459
H      0.23391991   -1.30825984   -3.56515815
H      0.15706458    0.69108912    1.25792268
H     -0.07666448   -1.05691347    0.98841341
$end
--------------------------------------------------------------
 ----------------------------------------------------------------
             Standard Nuclear Orientation (Angstroms)
    I     Atom           X                Y                Z
 ----------------------------------------------------------------
    1      C      -1.2956276618     0.2576584774     0.1646944141
    2      C       0.0397278496    -0.0919903334    -0.4160281048
    3      H      -1.4137696076     1.3436974510     0.1609764569
    4      H       0.2127936743     0.2471040271    -1.4512870842
    5      H       2.1781553386     1.9253941090     0.2235047382
    6      O       0.9008522898    -0.7152427985     0.1959736173
    7      H       2.7985865817     1.5236152600     0.2587017890
    8      H      -2.0803388869    -0.1998064857    -0.4422371932
    9      H      -1.3668465449    -0.1120708373     1.1905544986
 ----------------------------------------------------------------
 Molecular Point Group                 C1    NOp =  1
 Largest Abelian Subgroup              C1    NOp =  1
 Nuclear Repulsion Energy =          77.71923866 hartrees
 There are       13 alpha and       13 beta electrons
 Requested basis set is 6-31G(d)
 There are 24 shells and 57 basis functions

 Total QAlloc Memory Limit   2000 MB
 Mega-Array Size       188 MB
 MEM_STATIC part       192 MB

                       Distance Matrix (Angstroms)
             C (  1)   C (  2)   H (  3)   H (  4)   H (  5)   O (  6)
   C (  2)  1.497554
   H (  3)  1.092452  2.122920
   H (  4)  2.210620  1.103040  2.539216
   H (  5)  3.853825  3.008607  3.639259  3.079648
   O (  6)  2.402507  1.226591  3.098053  2.028054  2.933466
   H (  7)  4.286499  3.267529  4.217329  3.352591  0.740000  2.935612
   H (  8)  1.092434  2.122968  1.786221  2.544871  4.805670  3.092004
   H (  9)  1.092777  2.135407  1.783674  3.098967  4.201605  2.548620
             H (  7)   H (  8)
   H (  8)  5.221629
   H (  9)  4.571067  1.784034
 
 A cutoff of  1.0D-11 yielded    294 shell pairs
 There are      1728 function pairs
 Smallest overlap matrix eigenvalue = 5.57E-03
 Guess from superposition of atomic densities
 Warning:  Energy on first SCF cycle will be non-variational
 SAD guess density has 26.000000 electrons

 -----------------------------------------------------------------------
  General SCF calculation program by
  Eric Jon Sundstrom, Paul Horn, Yuezhi Mao, Dmitri Zuev, Alec White,
  David Stuck, Shaama M.S., Shane Yost, Joonho Lee, David Small,
  Daniel Levine, Susi Lehtola, Hugh Burton, Evgeny Epifanovsky,
  Bang C. Huynh
 -----------------------------------------------------------------------
 Exchange:     0.2000 Hartree-Fock + 0.0800 Slater + 0.7200 B88
 Correlation:  0.1900 VWN1RPA + 0.8100 LYP
 Using SG-1 standard quadrature grid
 using 2 threads for integral computing
 -------------------------------------------------------
 OpenMP Integral computing Module                
 Release: version 2.0, May 2017, Q-Chem Inc. Pleasanton 
 -------------------------------------------------------
 A restricted SCF calculation will be
 performed using DIIS
 SCF converges when DIIS error is below 1.0e-08
 ---------------------------------------
  Cycle       Energy         DIIS error
 ---------------------------------------
    1    -155.1388426785      9.67e-02  
    2    -154.9091297806      1.62e-02  
    3    -154.7044637904      3.02e-02  
    4    -154.9933824210      5.22e-03  
    5    -155.0034655188      9.24e-04  
    6    -155.0037490061      1.95e-04  
    7    -155.0037621903      5.75e-05  
    8    -155.0037633660      1.12e-05  
    9    -155.0037634059      1.73e-06  
   10    -155.0037634070      1.19e-07  
   11    -155.0037634070      3.41e-08  
   12    -155.0037634070      3.55e-09  Convergence criterion met
 ---------------------------------------
 SCF time:   CPU 4.53s  wall 3.00s 
 SCF   energy in the final basis set =     -155.0037634070
 Total energy in the final basis set =     -155.0037634070
 
 --------------------------------------------------------------
 
                    Orbital Energies (a.u.)
 --------------------------------------------------------------
 
 Alpha MOs
 -- Occupied --
-19.1486 -10.2804 -10.1967  -1.0361  -0.7566  -0.5840  -0.4749  -0.4509
 -0.4308  -0.4270  -0.3954  -0.3582  -0.2543
 -- Virtual --
 -0.0257   0.0959   0.1183   0.1324   0.1519   0.1590   0.2545   0.2818
  0.5094   0.5358   0.5717   0.5872   0.6350   0.6843   0.7020   0.7703
  0.8515   0.8570   0.8801   0.9180   0.9339   0.9997   1.0761   1.1410
  1.2585   1.3985   1.4741   1.5296   1.7034   1.8087   1.8123   1.8535
  2.0602   2.0692   2.1469   2.2952   2.3506   2.5358   2.5669   2.8414
  2.9284   3.8006   4.0764   4.3311
 --------------------------------------------------------------
 
          Ground-State Mulliken Net Atomic Charges

     Atom                 Charge (a.u.)
  ----------------------------------------
      1 C                    -0.514097
      2 C                     0.258668
      3 H                     0.173168
      4 H                     0.109922
      5 H                    -0.022126
      6 O                    -0.384254
      7 H                     0.021143
      8 H                     0.174151
      9 H                     0.183424
  ----------------------------------------
  Sum of atomic charges =     0.000000

 -----------------------------------------------------------------
                    Cartesian Multipole Moments
 -----------------------------------------------------------------
    Charge (ESU x 10^10)
                 0.0000
    Dipole Moment (Debye)
         X      -2.0938      Y       1.2774      Z      -0.9482
       Tot       2.6296
    Quadrupole Moments (Debye-Ang)
        XX     -20.5989     XY       1.1829     YY     -20.6401
        XZ      -0.3534     YZ       0.4161     ZZ     -19.5892
    Octopole Moments (Debye-Ang^2)
       XXX       0.6311    XXY      -0.8497    XYY      -1.8705
       YYY      -2.7985    XXZ      -0.1749    XYZ       0.0301
       YYZ      -0.1879    XZZ      -0.3833    YZZ      -1.6651
       ZZZ       0.3033
    Hexadecapole Moments (Debye-Ang^3)
      XXXX    -194.3895   XXXY      -2.9551   XXYY     -50.1899
      XYYY      -8.6269   YYYY     -78.2771   XXXZ       3.1865
      XXYZ       0.1508   XYYZ      -0.2592   YYYZ      -0.4554
      XXZZ     -41.0588   XYZZ      -1.5702   YYZZ     -21.2453
      XZZZ      -1.2116   YZZZ      -1.2349   ZZZZ     -41.8251
 -----------------------------------------------------------------
 Calculating MO derivatives via CPSCF
    1     0    30    0.0587296  
    2     0    30    0.0067689  
    3     6    24    0.0003272  
    4    18    12    0.0000099  
    5    30     0    0.0000002  Converged
 Time for AOints: 0.4 s (CPU) 0.2 s (wall)
 ------------------------------------------------------------------------------
                     AOints        : Timing summary (seconds)
 ------------------------------------------------------------------------------
     job step          cpu (% of tot)      sys (% of tot)     wall (% of tot)
 ------------------------------------------------------------------------------
  AOints            0.3866E+00 ( 4.4)   0.4000E-05 (12.1)   0.2192E+00 ( 4.9)
 ------------------------------------------------------------------------------
   Grand Totals     0.8713E+01          0.3300E-04          0.4481E+01
 ------------------------------------------------------------------------------
 Polarizability Matrix (a.u.)
            1           2           3
    1 -31.1954301   6.2879829  -0.8091282
    2   6.2879829 -22.1768719   2.8457824
    3  -0.8091282   2.8457824 -23.9389429
 Calculating analytic Hessian of the SCF energy
 
 Direct stationary perturbation theory relativistic correction:
 
 rels  =       0.047384218609
 relv  =      -0.196472912668
 rel2e =       0.070448125427
 E_rel =      -0.078640568631
 
 Hessian of the SCF Energy
            1           2           3           4           5           6
    1   0.4965214   0.0123711   0.0259156  -0.1747649   0.0140358   0.0601825
    2   0.0123711   0.5542276  -0.0260645   0.0141916  -0.0898312  -0.0091872
    3   0.0259156  -0.0260645   0.5871527   0.0603722  -0.0088542  -0.1304755
    4  -0.1747649   0.0141916   0.0603722   0.6724931  -0.2302572   0.0779597
    5   0.0140358  -0.0898312  -0.0088542  -0.2302572   0.4034217  -0.2111315
    6   0.0601825  -0.0091872  -0.1304755   0.0779597  -0.2111315   0.6559534
    7  -0.0442258   0.0338454   0.0041298  -0.0023603   0.0355133  -0.0047412
    8   0.0287614  -0.3176364   0.0020651   0.0015717  -0.0075310   0.0023931
    9   0.0033248   0.0008168  -0.0479705  -0.0027033  -0.0139342   0.0007920
   10   0.0012626  -0.0042318   0.0283677  -0.0758824  -0.0143257   0.0533199
   11   0.0058976   0.0158199  -0.0025746  -0.0169619  -0.0747825   0.0562857
   12   0.0029594   0.0084468  -0.0068952   0.0596507   0.0533943  -0.2574515
   13  -0.0000071  -0.0000522  -0.0000299  -0.0001027  -0.0014662   0.0000956
   14  -0.0000791   0.0002114   0.0000193  -0.0004623  -0.0005020   0.0000314
   15  -0.0000230  -0.0000338  -0.0000504   0.0000916  -0.0003210   0.0003401
   16  -0.0399620   0.0371636  -0.0205386  -0.3958443   0.2222897  -0.1979612
   17   0.0294088   0.0091085   0.0102677   0.2235785  -0.2355099   0.1636962
   18  -0.0015964   0.0021595   0.0227109  -0.2030104   0.1662325  -0.2633099
   19   0.0000902  -0.0001714  -0.0000348  -0.0002499   0.0000623  -0.0000771
   20   0.0001104  -0.0002583  -0.0000548  -0.0000576  -0.0008268  -0.0000079
   21   0.0000086  -0.0000330   0.0000405  -0.0001719   0.0000923  -0.0002472
   22  -0.1881496  -0.0880788  -0.1104004  -0.0222176  -0.0123688  -0.0231579
   23  -0.0840522  -0.0884560  -0.0628676   0.0084846   0.0031898   0.0070147
   24  -0.1068070  -0.0627232  -0.1331865   0.0080653   0.0088156   0.0099191
   25  -0.0507647  -0.0050375   0.0122184  -0.0010711  -0.0134832   0.0343797
   26  -0.0064537  -0.0831855   0.0880636  -0.0000874   0.0023719  -0.0090945
   27   0.0160353   0.0866187  -0.2913260  -0.0002538   0.0057063  -0.0155205
            7           8           9          10          11          12
    1  -0.0442258   0.0287614   0.0033248   0.0012626   0.0058976   0.0029594
    2   0.0338454  -0.3176364   0.0008168  -0.0042318   0.0158199   0.0084468
    3   0.0041298   0.0020651  -0.0479705   0.0283677  -0.0025746  -0.0068952
    4  -0.0023603   0.0015717  -0.0027033  -0.0758824  -0.0169619   0.0596507
    5   0.0355133  -0.0075310  -0.0139342  -0.0143257  -0.0747825   0.0533943
    6  -0.0047412   0.0023931   0.0007920   0.0533199   0.0562857  -0.2574515
    7   0.0492477  -0.0351169  -0.0014712  -0.0000509  -0.0035920  -0.0003496
    8  -0.0351169   0.3435954  -0.0019149   0.0008239   0.0008738  -0.0004705
    9  -0.0014712  -0.0019149   0.0440628  -0.0000619   0.0018116  -0.0000214
   10  -0.0000509   0.0008239  -0.0000619   0.0688804  -0.0017749  -0.0485625
   11  -0.0035920   0.0008738   0.0018116  -0.0017749   0.0549544  -0.0849511
   12  -0.0003496  -0.0004705  -0.0000214  -0.0485625  -0.0849511   0.2843067
   13  -0.0000439   0.0000732   0.0000069  -0.0000338   0.0000717   0.0000437
   14  -0.0001104  -0.0000190   0.0000089   0.0000153  -0.0000789  -0.0001550
   15   0.0000164  -0.0000030   0.0000128   0.0000216   0.0000566  -0.0000496
   16  -0.0067397   0.0009164   0.0015307   0.0090696   0.0116912  -0.0182547
   17  -0.0026432   0.0004684   0.0005511   0.0180339   0.0019203   0.0236178
   18   0.0015998  -0.0021717   0.0006033  -0.0339815   0.0304854  -0.0196302
   19   0.0000890   0.0000096  -0.0000202  -0.0000067   0.0000608   0.0000921
   20   0.0001091   0.0000698  -0.0000102   0.0000253   0.0002097   0.0002064
   21   0.0000001   0.0000057  -0.0000166  -0.0000327  -0.0000363   0.0001357
   22   0.0048524   0.0022389   0.0037038   0.0019601   0.0020943   0.0023299
   23  -0.0254630  -0.0114637  -0.0181880  -0.0008381  -0.0004449  -0.0000670
   24   0.0011257   0.0008982  -0.0003889  -0.0017145  -0.0007861  -0.0007100
   25  -0.0007686   0.0007218  -0.0043096  -0.0051990   0.0025133   0.0020910
   26  -0.0025423  -0.0083572   0.0308589   0.0022722   0.0015282  -0.0000218
   27  -0.0003098  -0.0008022   0.0029265   0.0026439  -0.0002912   0.0003156
           13          14          15          16          17          18
    1  -0.0000071  -0.0000791  -0.0000230  -0.0399620   0.0294088  -0.0015964
    2  -0.0000522   0.0002114  -0.0000338   0.0371636   0.0091085   0.0021595
    3  -0.0000299   0.0000193  -0.0000504  -0.0205386   0.0102677   0.0227109
    4  -0.0001027  -0.0004623   0.0000916  -0.3958443   0.2235785  -0.2030104
    5  -0.0014662  -0.0005020  -0.0003210   0.2222897  -0.2355099   0.1662325
    6   0.0000956   0.0000314   0.0003401  -0.1979612   0.1636962  -0.2633099
    7  -0.0000439  -0.0001104   0.0000164  -0.0067397  -0.0026432   0.0015998
    8   0.0000732  -0.0000190  -0.0000030   0.0009164   0.0004684  -0.0021717
    9   0.0000069   0.0000089   0.0000128   0.0015307   0.0005511   0.0006033
   10  -0.0000338   0.0000153   0.0000216   0.0090696   0.0180339  -0.0339815
   11   0.0000717  -0.0000789   0.0000566   0.0116912   0.0019203   0.0304854
   12   0.0000437  -0.0001550  -0.0000496  -0.0182547   0.0236178  -0.0196302
   13   0.2714088  -0.1748502   0.0157032  -0.0014017  -0.0007679  -0.0004134
   14  -0.1748502   0.1119930  -0.0096316  -0.0006738  -0.0003292  -0.0001573
   15   0.0157032  -0.0096316  -0.0001626  -0.0003473  -0.0000652   0.0000489
   16  -0.0014017  -0.0006738  -0.0003473   0.4338833  -0.2701663   0.2366500
   17  -0.0007679  -0.0003292  -0.0000652  -0.2701663   0.2281227  -0.1943234
   18  -0.0004134  -0.0001573   0.0000489   0.2366500  -0.1943234   0.2558602
   19  -0.2697955   0.1761426  -0.0154647   0.0002046  -0.0001159   0.0000818
   20   0.1769564  -0.1112500   0.0099880  -0.0011153  -0.0007733  -0.0001639
   21  -0.0154106   0.0098851  -0.0001302   0.0001859   0.0000484   0.0001027
   22  -0.0000224   0.0000184  -0.0000083  -0.0031136   0.0034827   0.0047057
   23   0.0000274  -0.0000043  -0.0000036   0.0014325  -0.0023343  -0.0017004
   24   0.0000059   0.0000061   0.0000011   0.0007845  -0.0026352  -0.0000707
   25  -0.0000018  -0.0000004   0.0000105   0.0039038  -0.0008106  -0.0040355
   26   0.0000078  -0.0000211   0.0000136  -0.0015379  -0.0006733  -0.0003606
   27  -0.0000014  -0.0000069  -0.0000100  -0.0020492  -0.0011574   0.0036850
           19          20          21          22          23          24
    1   0.0000902   0.0001104   0.0000086  -0.1881496  -0.0840522  -0.1068070
    2  -0.0001714  -0.0002583  -0.0000330  -0.0880788  -0.0884560  -0.0627232
    3  -0.0000348  -0.0000548   0.0000405  -0.1104004  -0.0628676  -0.1331865
    4  -0.0002499  -0.0000576  -0.0001719  -0.0222176   0.0084846   0.0080653
    5   0.0000623  -0.0008268   0.0000923  -0.0123688   0.0031898   0.0088156
    6  -0.0000771  -0.0000079  -0.0002472  -0.0231579   0.0070147   0.0099191
    7   0.0000890   0.0001091   0.0000001   0.0048524  -0.0254630   0.0011257
    8   0.0000096   0.0000698   0.0000057   0.0022389  -0.0114637   0.0008982
    9  -0.0000202  -0.0000102  -0.0000166   0.0037038  -0.0181880  -0.0003889
   10  -0.0000067   0.0000253  -0.0000327   0.0019601  -0.0008381  -0.0017145
   11   0.0000608   0.0002097  -0.0000363   0.0020943  -0.0004449  -0.0007861
   12   0.0000921   0.0002064   0.0001357   0.0023299  -0.0000670  -0.0007100
   13  -0.2697955   0.1769564  -0.0154106  -0.0000224   0.0000274   0.0000059
   14   0.1761426  -0.1112500   0.0098851   0.0000184  -0.0000043   0.0000061
   15  -0.0154647   0.0099880  -0.0001302  -0.0000083  -0.0000036   0.0000011
   16   0.0002046  -0.0011153   0.0001859  -0.0031136   0.0014325   0.0007845
   17  -0.0001159  -0.0007733   0.0000484   0.0034827  -0.0023343  -0.0026352
   18   0.0000818  -0.0001639   0.0001027   0.0047057  -0.0017004  -0.0000707
   19   0.2696804  -0.1759892   0.0154338  -0.0000129   0.0000008  -0.0000086
   20  -0.1759892   0.1127966  -0.0099606  -0.0000359   0.0000197   0.0000012
   21   0.0154338  -0.0099606   0.0001015   0.0000001   0.0000061   0.0000030
   22  -0.0000129  -0.0000359   0.0000001   0.2038510   0.0902855   0.1206731
   23   0.0000008   0.0000197   0.0000061   0.0902855   0.0945655   0.0702146
   24  -0.0000086   0.0000012   0.0000030   0.1206731   0.0702146   0.1383829
   25   0.0000007  -0.0000030  -0.0000134   0.0028526   0.0101227  -0.0221244
   26   0.0000005   0.0000127  -0.0000077   0.0023638   0.0049283  -0.0137912
   27  -0.0000024   0.0000019   0.0000107   0.0021541   0.0055911  -0.0139500
           25          26          27
    1  -0.0507647  -0.0064537   0.0160353
    2  -0.0050375  -0.0831855   0.0866187
    3   0.0122184   0.0880636  -0.2913260
    4  -0.0010711  -0.0000874  -0.0002538
    5  -0.0134832   0.0023719   0.0057063
    6   0.0343797  -0.0090945  -0.0155205
    7  -0.0007686  -0.0025423  -0.0003098
    8   0.0007218  -0.0083572  -0.0008022
    9  -0.0043096   0.0308589   0.0029265
   10  -0.0051990   0.0022722   0.0026439
   11   0.0025133   0.0015282  -0.0002912
   12   0.0020910  -0.0000218   0.0003156
   13  -0.0000018   0.0000078  -0.0000014
   14  -0.0000004  -0.0000211  -0.0000069
   15   0.0000105   0.0000136  -0.0000100
   16   0.0039038  -0.0015379  -0.0020492
   17  -0.0008106  -0.0006733  -0.0011574
   18  -0.0040355  -0.0003606   0.0036850
   19   0.0000007   0.0000005  -0.0000024
   20  -0.0000030   0.0000127   0.0000019
   21  -0.0000134  -0.0000077   0.0000107
   22   0.0028526   0.0023638   0.0021541
   23   0.0101227   0.0049283   0.0055911
   24  -0.0221244  -0.0137912  -0.0139500
   25   0.0510481   0.0059771  -0.0182167
   26   0.0059771   0.0833961  -0.0956603
   27  -0.0182167  -0.0956603   0.3138689
 **********************************************************************
 **                                                                  **
 **                       VIBRATIONAL ANALYSIS                       **
 **                       --------------------                       **
 **                                                                  **
 **        VIBRATIONAL FREQUENCIES (CM**-1) AND NORMAL MODES         **
 **     FORCE CONSTANTS (mDYN/ANGSTROM) AND REDUCED MASSES (AMU)     **
 **                  INFRARED INTENSITIES (KM/MOL)                   **
 **                                                                  **
 **********************************************************************
 

 Mode:                 1                      2                      3
 Frequency:      -327.02                -206.66                -108.99
 Force Cnst:      0.0636                 0.0255                 0.0073
 Red. Mass:       1.0095                 1.0115                 1.0369
 IR Active:          YES                    YES                    YES
 IR Intens:        0.359                  1.098                  1.253
 Raman Active:       YES                    YES                    YES
               X      Y      Z        X      Y      Z        X      Y      Z
 C          0.002 -0.007  0.000    0.000  0.003 -0.010    0.003 -0.001 -0.015
 C          0.006  0.006  0.004    0.001 -0.005 -0.002    0.013 -0.011  0.016
 H          0.003 -0.006  0.010   -0.013  0.001 -0.050    0.274  0.036  0.432
 H          0.013  0.028  0.013    0.000 -0.027 -0.009    0.060  0.041  0.041
 H          0.292  0.585 -0.105   -0.016  0.051  0.716   -0.153  0.107 -0.214
 O          0.004  0.000  0.000    0.002  0.007  0.010   -0.002 -0.018  0.032
 H         -0.470 -0.580  0.045   -0.040 -0.110 -0.682   -0.110  0.164 -0.311
 H          0.004 -0.001 -0.008    0.005 -0.029  0.008   -0.036  0.457 -0.299
 H         -0.002 -0.016 -0.003    0.006  0.037  0.003   -0.193 -0.383 -0.167
 TransDip   0.004 -0.018  0.004   -0.007 -0.004 -0.033    0.018  0.031 -0.001

 Mode:                 4                      5                      6
 Frequency:       -78.35                 135.08                 245.86
 Force Cnst:      0.0047                 0.0177                 0.0381
 Red. Mass:       1.2952                 1.6494                 1.0706
 IR Active:          YES                    YES                    YES
 IR Intens:        0.059                  3.820                  0.317
 Raman Active:       YES                    YES                    YES
               X      Y      Z        X      Y      Z        X      Y      Z
 C         -0.066 -0.089 -0.026   -0.013 -0.009  0.016   -0.014 -0.001 -0.001
 C          0.007  0.083  0.038   -0.082 -0.123 -0.074   -0.016 -0.021  0.001
 H         -0.169 -0.101  0.059    0.226  0.023  0.229   -0.007 -0.001 -0.014
 H          0.078  0.253  0.106   -0.262 -0.466 -0.217   -0.007 -0.015  0.005
 H          0.482 -0.298 -0.238    0.299 -0.123  0.282    0.486  0.590  0.085
 O         -0.004  0.055  0.024    0.051  0.141  0.009   -0.031 -0.050 -0.006
 H          0.449 -0.351 -0.269    0.228 -0.229  0.318    0.420  0.476  0.013
 H          0.021 -0.113 -0.120   -0.136  0.283 -0.035   -0.015 -0.003  0.002
 H         -0.104 -0.187 -0.064   -0.035 -0.147 -0.035   -0.020  0.009  0.002
 TransDip  -0.005 -0.006 -0.001   -0.029 -0.054 -0.011    0.001  0.018  0.000

 Mode:                 7                      8                      9
 Frequency:       515.60                 760.46                 908.13
 Force Cnst:      0.3878                 0.3858                 0.9811
 Red. Mass:       2.4761                 1.1324                 2.0190
 IR Active:          YES                    YES                    YES
 IR Intens:       12.623                  0.522                  4.162
 Raman Active:       YES                    YES                    YES
               X      Y      Z        X      Y      Z        X      Y      Z
 C         -0.149  0.070 -0.014   -0.025 -0.055 -0.022    0.217 -0.102  0.016
 C         -0.035 -0.061  0.188   -0.029 -0.065 -0.028   -0.110  0.020  0.069
 H          0.042  0.093 -0.337    0.469  0.010 -0.170    0.424 -0.076 -0.410
 H         -0.236  0.024  0.174    0.241  0.551  0.220   -0.369  0.143  0.054
 H          0.001 -0.017  0.003    0.003 -0.005  0.017    0.002 -0.000  0.001
 O          0.190 -0.038 -0.103    0.012  0.028  0.009   -0.097  0.051 -0.021
 H          0.001 -0.016  0.012    0.010  0.005  0.015    0.005  0.003  0.002
 H          0.049  0.118 -0.311   -0.384  0.207  0.265    0.445  0.006 -0.368
 H         -0.686  0.296  0.029    0.102  0.223  0.088   -0.235  0.092  0.041
 TransDip  -0.089  0.009  0.070    0.010  0.019  0.009   -0.059  0.015  0.024

 Mode:                10                     11                     12
 Frequency:      1139.36                1145.39                1391.85
 Force Cnst:      1.3649                 1.7078                 1.4051
 Red. Mass:       1.7845                 2.2094                 1.2310
 IR Active:          YES                    YES                    YES
 IR Intens:        1.177                 24.322                 16.245
 Raman Active:       YES                    YES                    YES
               X      Y      Z        X      Y      Z        X      Y      Z
 C         -0.056 -0.124 -0.042    0.051  0.046 -0.191   -0.117  0.025  0.064
 C          0.088  0.187  0.068   -0.152 -0.003  0.202   -0.003 -0.002  0.008
 H          0.448 -0.051 -0.081    0.031  0.036  0.256    0.515  0.087 -0.164
 H         -0.233 -0.560 -0.232   -0.170 -0.041  0.200    0.430 -0.195  0.021
 H         -0.004 -0.002 -0.009    0.001  0.000  0.001    0.000 -0.001  0.000
 O         -0.019 -0.040 -0.014    0.042 -0.007 -0.034   -0.014  0.017 -0.027
 H         -0.003  0.000 -0.009    0.001 -0.000  0.000    0.000 -0.000  0.001
 H         -0.374  0.229  0.136   -0.096 -0.169  0.182    0.358 -0.279 -0.309
 H          0.086  0.263  0.107    0.761 -0.224 -0.232    0.359 -0.162  0.024
 TransDip   0.021  0.027  0.007   -0.118  0.010  0.105    0.119 -0.048 -0.011

 Mode:                13                     14                     15
 Frequency:      1422.26                1474.05                1505.46
 Force Cnst:      1.5106                 1.3645                 1.3990
 Red. Mass:       1.2675                 1.0658                 1.0476
 IR Active:          YES                    YES                    YES
 IR Intens:       16.555                 19.037                  9.418
 Raman Active:       YES                    YES                    YES
               X      Y      Z        X      Y      Z        X      Y      Z
 C          0.076 -0.033  0.002   -0.014 -0.016  0.051   -0.019 -0.047 -0.020
 C         -0.054 -0.005  0.070   -0.017  0.010 -0.008   -0.009 -0.021 -0.008
 H         -0.262 -0.071 -0.041   -0.342 -0.049 -0.496   -0.144 -0.047  0.464
 H          0.784 -0.390  0.119   -0.073  0.038 -0.007    0.033  0.059  0.026
 H          0.001  0.001  0.000    0.000 -0.000 -0.000    0.000  0.000  0.001
 O         -0.028  0.039 -0.065    0.026 -0.018  0.018   -0.000  0.003 -0.000
 H         -0.000 -0.001  0.000   -0.000 -0.001  0.000    0.000 -0.000  0.001
 H         -0.135  0.224  0.081   -0.078  0.543 -0.295    0.193  0.124 -0.402
 H         -0.205  0.074  0.020    0.453 -0.172  0.011    0.258  0.641  0.247
 TransDip  -0.104  0.012  0.078   -0.068  0.072 -0.098    0.038  0.083  0.037

 Mode:                16                     17                     18
 Frequency:      1756.66                3006.15                3077.28
 Force Cnst:     14.1495                 5.7745                 5.7672
 Red. Mass:       7.7825                 1.0845                 1.0337
 IR Active:          YES                    YES                    YES
 IR Intens:      140.088                117.819                  1.506
 Raman Active:       YES                    YES                    YES
               X      Y      Z        X      Y      Z        X      Y      Z
 C         -0.052  0.028 -0.012    0.003 -0.003  0.004    0.044 -0.013 -0.015
 C          0.476 -0.314  0.262    0.019  0.023 -0.078   -0.002 -0.002  0.006
 H         -0.214  0.001 -0.062   -0.000  0.067 -0.003   -0.061  0.589 -0.004
 H         -0.447  0.123  0.182   -0.182 -0.294  0.930    0.017  0.019 -0.065
 H          0.002  0.004  0.002   -0.000 -0.000 -0.000   -0.000  0.000 -0.000
 O         -0.286  0.203 -0.194   -0.002  0.001 -0.000   -0.000  0.000 -0.000
 H          0.002  0.001 -0.002    0.000  0.000  0.001    0.000  0.000 -0.000
 H         -0.137  0.173  0.005   -0.042 -0.031 -0.040   -0.423 -0.249 -0.331
 H          0.286 -0.116 -0.020   -0.001  0.003 -0.006   -0.027 -0.186  0.506
 TransDip   0.311 -0.179  0.121    0.112  0.080 -0.319    0.029 -0.021  0.017

 Mode:                19                     20                     21
 Frequency:      3159.85                3167.39                4492.34
 Force Cnst:      6.4809                 6.5280                11.9835
 Red. Mass:       1.1017                 1.1044                 1.0078
 IR Active:          YES                    YES                    YES
 IR Intens:        7.842                 11.576                  1.766
 Raman Active:       YES                    YES                    YES
               X      Y      Z        X      Y      Z        X      Y      Z
 C         -0.034 -0.081 -0.028   -0.022  0.038 -0.083    0.000 -0.000 -0.000
 C         -0.000 -0.001  0.000   -0.000  0.003 -0.006    0.000 -0.000  0.000
 H         -0.092  0.712 -0.010    0.036 -0.347 -0.012    0.000  0.000  0.000
 H          0.001  0.002 -0.003   -0.012 -0.015  0.052   -0.000  0.000  0.000
 H          0.000 -0.000  0.000   -0.000 -0.000  0.000    0.594 -0.383  0.034
 O         -0.000 -0.000 -0.000    0.000 -0.001  0.001   -0.000 -0.000 -0.000
 H          0.000 -0.000  0.000   -0.000 -0.000  0.000   -0.592  0.384 -0.034
 H          0.502  0.274  0.385    0.293  0.177  0.216   -0.000  0.000  0.000
 H         -0.004 -0.003 -0.036   -0.056 -0.284  0.787    0.000  0.000 -0.000
 TransDip  -0.034 -0.079 -0.026    0.003  0.036 -0.103   -0.038  0.018 -0.003

 STANDARD THERMODYNAMIC QUANTITIES AT   298.15 K  AND     1.00 ATM

   This Molecule has  4 Imaginary Frequencies
   Zero point vibrational energy:       41.891 kcal/mol

   Atom    1 Element C  Has Mass   12.00000
   Atom    2 Element C  Has Mass   12.00000
   Atom    3 Element H  Has Mass    1.00783
   Atom    4 Element H  Has Mass    1.00783
   Atom    5 Element H  Has Mass    1.00783
   Atom    6 Element O  Has Mass   15.99491
   Atom    7 Element H  Has Mass    1.00783
   Atom    8 Element H  Has Mass    1.00783
   Atom    9 Element H  Has Mass    1.00783
   Molecular Mass:    46.041890 amu
   Principal axes and moments of inertia in amu*Bohr^2:
                             1           2           3
    Eigenvalues --       79.29122   222.48928   252.75364
          X               0.98343     0.18099     0.01013
          Y              -0.18125     0.98084     0.07143
          Z               0.00299    -0.07208     0.99739
   Rotational Symmetry Number is   1
   The Molecule is an Asymmetric Top
   Translational Enthalpy:        0.889 kcal/mol
   Rotational Enthalpy:           0.889 kcal/mol
   Vibrational Enthalpy:         42.886 kcal/mol
   gas constant (RT):             0.592 kcal/mol
   Translational Entropy:        37.406  cal/mol.K
   Rotational Entropy:           23.015  cal/mol.K
   Vibrational Entropy:           5.798  cal/mol.K

   Total Enthalpy:               45.256 kcal/mol
   Total Entropy:                66.219  cal/mol.K
Archival summary:
1\1\node018\FREQ\ProcedureUnspecified\6-31G*\126\guest94\SunMar2217:02:212020SunMar2217:02:212020\0\\#,FREQ,ProcedureUnspecified,6-31G*,\\0,1\C\H,1,1.10304\O,1,1.22659,2,120.953\C,1,1.49755,2,115.6,3,-179.871,0\H,4,1.09243,1,109.105,2,60.3611,0\H,4,1.09245,1,109.1,2,-59.4447,0\H,4,1.09278,1,110.069,2,-179.519,0\H,3,2.93347,1,81.5455,2,72.1072,0\H,8,0.74,3,82.9214,1,-152.427,0\\\@

 Total job time:  12.10s(wall), 28.87s(cpu) 
 Sun Mar 22 17:02:21 2020

        *************************************************************
        *                                                           *
        *  Thank you very much for using Q-Chem.  Have a nice day.  *
        *                                                           *
        *************************************************************


