                  Welcome to Q-Chem
     A Quantum Leap Into The Future Of Chemistry


 Q-Chem 5.2 (devel), Q-Chem, Inc., Pleasanton, CA (2019)

 Yihan Shao,  Zhengting Gan,  E. Epifanovsky,  A. T. B. Gilbert,  M. Wormit,  
 J. Kussmann,  A. W. Lange,  A. Behn,  Jia Deng,  Xintian Feng,  D. Ghosh,  
 M. Goldey,  P. R. Horn,  L. D. Jacobson,  I. Kaliman,  T. Kus,  A. Landau,  
 Jie Liu,  E. I. Proynov,  R. M. Richard,  R. P. Steele,  E. J. Sundstrom,  
 H. L. Woodcock III,  P. M. Zimmerman,  D. Zuev,  B. Albrecht,  E. Alguire,  
 S. A. Baeppler,  D. Barton,  Z. Benda,  Y. A. Bernard,  E. J. Berquist,  
 K. B. Bravaya,  H. Burton,  D. Casanova,  Chun-Min Chang,  Yunqing Chen,  
 A. Chien,  K. D. Closser,  M. P. Coons,  S. Coriani,  S. Dasgupta,  
 A. L. Dempwolff,  M. Diedenhofen,  Hainam Do,  R. G. Edgar,  Po-Tung Fang,  
 S. Faraji,  S. Fatehi,  Qingguo Feng,  K. D. Fenk,  J. Fosso-Tande,  
 J. Gayvert,  Qinghui Ge,  A. Ghysels,  G. Gidofalvi,  J. Gomes,  
 J. Gonthier,  A. Gunina,  D. Hait,  M. W. D. Hanson-Heine,  
 P. H. P. Harbach,  A. W. Hauser,  M. F. Herbst,  J. E. Herr,  
 E. G. Hohenstein,  Z. C. Holden,  Kerwin Hui,  B. C. Huynh,  T.-C. Jagau,  
 Hyunjun Ji,  B. Kaduk,  K. Khistyaev,  Jaehoon Kim,  P. Klunzinger,  K. Koh,  
 D. Kosenkov,  L. Koulias,  T. Kowalczyk,  C. M. Krauter,  A. Kunitsa,  
 Ka Un Lao,  A. Laurent,  K. V. Lawler,  Joonho Lee,  D. Lefrancois,  
 S. Lehtola,  D. S. Levine,  Yi-Pei Li,  You-Sheng Lin,  Fenglai Liu,  
 E. Livshits,  A. Luenser,  P. Manohar,  E. Mansoor,  S. F. Manzer,  
 Shan-Ping Mao,  Yuezhi Mao,  N. Mardirossian,  A. V. Marenich,  
 T. Markovich,  L. A. Martinez-Martinez,  S. A. Maurer,  N. J. Mayhall,  
 S. C. McKenzie,  J.-M. Mewes,  P. Morgante,  A. F. Morrison,  
 J. W. Mullinax,  K. Nanda,  T. S. Nguyen-Beck,  R. Olivares-Amaya,  
 J. A. Parkhill,  Zheng Pei,  T. M. Perrine,  F. Plasser,  P. Pokhilko,  
 S. Prager,  A. Prociuk,  E. Ramos,  D. R. Rehn,  F. Rob,  M. Scheurer,  
 M. Schneider,  N. Sergueev,  S. M. Sharada,  S. Sharma,  D. W. Small,  
 T. Stauch,  T. Stein,  Yu-Chuan Su,  A. J. W. Thom,  A. Tkatchenko,  
 T. Tsuchimochi,  N. M. Tubman,  L. Vogt,  M. L. Vidal,  O. Vydrov,  
 M. A. Watson,  J. Wenzel,  M. de Wergifosse,  T. A. Wesolowski,  A. White,  
 J. Witte,  A. Yamada,  Jun Yang,  K. Yao,  S. Yeganeh,  S. R. Yost,  
 Zhi-Qiang You,  A. Zech,  Igor Ying Zhang,  Xing Zhang,  Yan Zhao,  
 Ying Zhu,  B. R. Brooks,  G. K. L. Chan,  C. J. Cramer,  M. S. Gordon,  
 W. J. Hehre,  A. Klamt,  M. W. Schmidt,  C. D. Sherrill,  D. G. Truhlar,  
 A. Aspuru-Guzik,  R. Baer,  A. T. Bell,  N. A. Besley,  Jeng-Da Chai,  
 A. E. DePrince, III,  R. A. DiStasio Jr.,  A. Dreuw,  B. D. Dunietz,  
 T. R. Furlani,  Chao-Ping Hsu,  Yousung Jung,  Jing Kong,  D. S. Lambrecht,  
 WanZhen Liang,  C. Ochsenfeld,  V. A. Rassolov,  L. V. Slipchenko,  
 J. E. Subotnik,  T. Van Voorhis,  J. M. Herbert,  A. I. Krylov,  
 P. M. W. Gill,  M. Head-Gordon

 Contributors to earlier versions of Q-Chem not listed above: 
 R. D. Adamson,  B. Austin,  J. Baker,  G. J. O. Beran,  K. Brandhorst,  
 S. T. Brown,  E. F. C. Byrd,  A. K. Chakraborty,  C.-L. Cheng,  
 Siu Hung Chien,  D. M. Chipman,  D. L. Crittenden,  H. Dachsel,  
 R. J. Doerksen,  A. D. Dutoi,  L. Fusti-Molnar,  W. A. Goddard III,  
 A. Golubeva-Zadorozhnaya,  S. R. Gwaltney,  G. Hawkins,  A. Heyden,  
 S. Hirata,  G. Kedziora,  F. J. Keil,  C. Kelley,  Jihan Kim,  R. A. King,  
 R. Z. Khaliullin,  P. P. Korambath,  W. Kurlancheek,  A. M. Lee,  M. S. Lee,  
 S. V. Levchenko,  Ching Yeh Lin,  D. Liotard,  R. C. Lochan,  I. Lotan,  
 P. E. Maslen,  N. Nair,  D. P. O'Neill,  D. Neuhauser,  E. Neuscamman,  
 C. M. Oana,  R. Olson,  B. Peters,  R. Peverati,  P. A. Pieniazek,  
 Y. M. Rhee,  J. Ritchie,  M. A. Rohrdanz,  E. Rosta,  N. J. Russ,  
 H. F. Schaefer III,  N. E. Schultz,  N. Shenvi,  A. C. Simmonett,  A. Sodt,  
 D. Stuck,  K. S. Thanthiriwatte,  V. Vanovschi,  Tao Wang,  A. Warshel,  
 C. F. Williams,  Q. Wu,  X. Xu,  W. Zhang

 Please cite Q-Chem as follows:
 Y. Shao et al., Mol. Phys. 113, 184-215 (2015)
 DOI: 10.1080/00268976.2014.952696

 Q-Chem 5.2.1 for Intel X86 EM64T Linux

 Parts of Q-Chem use Armadillo 8.300.2 (Tropical Shenanigans).
 http://arma.sourceforge.net/

 Q-Chem begins on Mon Mar  9 18:26:32 2020  

Host: node018
0

     Scratch files written to /tmp/ypli/105351.h81/qchem15558//
NAlpha2: 26
NElect   26
Mult     1

Checking the input file for inconsistencies... 	...done.

--------------------------------------------------------------
User input:
--------------------------------------------------------------
$rem
jobtype = freq
exchange = b3lyp
basis = 6-31g*
$end

$molecule
0 1
C     -6.66637790    0.43904904   -0.25719374
C     -5.94835373    1.49956258   -0.06218724
H     -5.71542294    1.98359630    0.31478371
H     -7.24457062    0.01691667    0.55348697
H     -6.69122145   -0.02949242   -1.23164652
O     -5.29740349    2.46101266    0.11461172
H     -5.11994643    2.02144483    0.84299602
H     -5.54736563    1.89242602   -0.40009021
H     -4.71669082    1.42014844    0.99605666
$end
--------------------------------------------------------------
 ----------------------------------------------------------------
             Standard Nuclear Orientation (Angstroms)
    I     Atom           X                Y                Z
 ----------------------------------------------------------------
    1      C       1.3295613503    -0.0102416844    -0.0039941341
    2      C       0.0371545181     0.0730562969    -0.0359509627
    3      H      -0.5560696814    -0.1456592641    -0.2117378921
    4      H       1.8336592817    -0.8353543707    -0.4885352605
    5      H       1.9108938011     0.7449092798     0.5073825617
    6      O      -1.1345276040     0.1485660499    -0.0649272541
    7      H      -1.0409384858    -0.7014260999     0.0900211119
    8      H      -0.4368391466     0.4695719476     0.1818032577
    9      H      -0.8347801476    -1.0974575671     0.6801548355
 ----------------------------------------------------------------
 Molecular Point Group                 C1    NOp =  1
 Largest Abelian Subgroup              C1    NOp =  1
 Nuclear Repulsion Energy =         102.53748484 hartrees
 There are       13 alpha and       13 beta electrons
 Requested basis set is 6-31G(d)
 There are 24 shells and 57 basis functions

 Total QAlloc Memory Limit   2000 MB
 Mega-Array Size       188 MB
 MEM_STATIC part       192 MB

                       Distance Matrix (Angstroms)
             C (  1)   C (  2)   H (  3)   H (  4)   H (  5)   O (  6)
   C (  2)  1.295483
   H (  3)  1.901867  0.656241
   H (  4)  1.081529  2.063364  2.502619
   H (  5)  1.081530  2.063370  2.719587  1.869505
   O (  6)  2.469953  1.174470  0.665384  3.155579  3.155591
   H (  7)  2.471001  1.333408  0.796890  2.935298  3.313516  0.869054
   H (  8)  1.839813  0.655219  0.740000  2.703211  2.386140  0.806654
   H (  9)  2.516838  1.625786  1.333819  2.924911  3.311026  1.482421
             H (  7)   H (  8)
   H (  8)  1.320832
   H (  9)  0.740000  1.691831
 
 A cutoff of  1.0D-11 yielded    299 shell pairs
 There are      1733 function pairs
 Smallest overlap matrix eigenvalue = 5.54E-04
 Guess from superposition of atomic densities
 Warning:  Energy on first SCF cycle will be non-variational
 SAD guess density has 26.000000 electrons

 -----------------------------------------------------------------------
  General SCF calculation program by
  Eric Jon Sundstrom, Paul Horn, Yuezhi Mao, Dmitri Zuev, Alec White,
  David Stuck, Shaama M.S., Shane Yost, Joonho Lee, David Small,
  Daniel Levine, Susi Lehtola, Hugh Burton, Evgeny Epifanovsky,
  Bang C. Huynh
 -----------------------------------------------------------------------
 Exchange:     0.2000 Hartree-Fock + 0.0800 Slater + 0.7200 B88
 Correlation:  0.1900 VWN1RPA + 0.8100 LYP
 Using SG-1 standard quadrature grid
 using 2 threads for integral computing
 -------------------------------------------------------
 OpenMP Integral computing Module                
 Release: version 2.0, May 2017, Q-Chem Inc. Pleasanton 
 -------------------------------------------------------
 A restricted SCF calculation will be
 performed using DIIS
 SCF converges when DIIS error is below 1.0e-08
 ---------------------------------------
  Cycle       Energy         DIIS error
 ---------------------------------------
    1    -156.7034398904      2.41e-01  
    2    -152.7560533568      1.94e-02  
    3    -152.6550554609      2.45e-02  
    4    -152.8854649145      5.99e-03  
    5    -152.9004949286      1.26e-03  
    6    -152.9010503791      3.76e-04  
    7    -152.9010912026      1.04e-04  
    8    -152.9010945790      1.97e-05  
    9    -152.9010947224      3.70e-06  
   10    -152.9010947279      2.92e-07  
   11    -152.9010947279      7.25e-08  
   12    -152.9010947279      1.45e-08  
   13    -152.9010947280      2.58e-09  Convergence criterion met
 ---------------------------------------
 SCF time:   CPU 5.00s  wall 3.00s 
 SCF   energy in the final basis set =     -152.9010947280
 Total energy in the final basis set =     -152.9010947280
 
 --------------------------------------------------------------
 
                    Orbital Energies (a.u.)
 --------------------------------------------------------------
 
 Alpha MOs
 -- Occupied --
-19.3346 -10.3024 -10.2115  -1.8235  -0.9642  -0.7786  -0.7538  -0.6941
 -0.5046  -0.4476  -0.2900  -0.2529  -0.2167
 -- Virtual --
  0.0065   0.0654   0.1518   0.1885   0.2147   0.2230   0.3130   0.3564
  0.4292   0.5049   0.5457   0.6036   0.6306   0.6910   0.7860   0.8327
  0.8694   0.8878   0.9373   0.9849   1.1270   1.1882   1.2117   1.2864
  1.3034   1.4606   1.5143   1.6150   1.7618   1.8272   1.9271   2.0682
  2.1698   2.2378   2.4910   2.7146   2.7711   2.8307   3.0657   3.8080
  4.1245   4.2010   4.5685   5.0798
 --------------------------------------------------------------
 
          Ground-State Mulliken Net Atomic Charges

     Atom                 Charge (a.u.)
  ----------------------------------------
      1 C                    -0.415646
      2 C                    -0.093037
      3 H                     0.050887
      4 H                     0.143881
      5 H                     0.143175
      6 O                     0.227601
      7 H                     0.087580
      8 H                     0.165403
      9 H                    -0.309843
  ----------------------------------------
  Sum of atomic charges =     0.000000

 -----------------------------------------------------------------
                    Cartesian Multipole Moments
 -----------------------------------------------------------------
    Charge (ESU x 10^10)
                -0.0000
    Dipole Moment (Debye)
         X       0.0414      Y       1.9882      Z      -1.0311
       Tot       2.2400
    Quadrupole Moments (Debye-Ang)
        XX     -18.5348     XY      -1.8199     YY     -22.5989
        XZ       1.1007     YZ       2.5115     ZZ     -20.7794
    Octopole Moments (Debye-Ang^2)
       XXX      -4.4421    XXY       2.5116    XYY       1.1101
       YYY       8.3890    XXZ      -1.0698    XYZ      -0.5579
       YYZ      -2.5871    XZZ      -1.8122    YZZ       2.4133
       ZZZ      -2.3219
    Hexadecapole Moments (Debye-Ang^3)
      XXXX    -147.3168   XXXY      -4.6343   XXYY     -33.5235
      XYYY      -8.0430   YYYY     -45.9711   XXXZ       3.0141
      XXYZ       4.0336   XYYZ       2.3974   YYYZ       5.5149
      XXZZ     -30.2981   XYZZ      -2.2552   YYZZ     -12.0536
      XZZZ       2.5035   YZZZ       3.6010   ZZZZ     -25.6214
 -----------------------------------------------------------------
 Calculating MO derivatives via CPSCF
    1     0    30    0.0767621  
    2     0    30    0.0066279  
    3     0    30    0.0004579  
    4     5    25    0.0000205  
    5    30     0    0.0000005  Converged
 Time for AOints: 0.4 s (CPU) 0.2 s (wall)
 ------------------------------------------------------------------------------
                     AOints        : Timing summary (seconds)
 ------------------------------------------------------------------------------
     job step          cpu (% of tot)      sys (% of tot)     wall (% of tot)
 ------------------------------------------------------------------------------
  AOints            0.4000E+00 ( 4.1)   0.4000E-05 ( 9.5)   0.2281E+00 ( 4.6)
 ------------------------------------------------------------------------------
   Grand Totals     0.9719E+01          0.4200E-04          0.4999E+01
 ------------------------------------------------------------------------------
 Polarizability Matrix (a.u.)
            1           2           3
    1 -37.9767253  -2.7703004   0.2778247
    2  -2.7703004 -20.8370777   0.4732016
    3   0.2778247   0.4732016 -17.3830781
 Calculating analytic Hessian of the SCF energy
 
 Direct stationary perturbation theory relativistic correction:
 
 rels  =       0.047908715361
 relv  =      -0.205366738156
 rel2e =       0.077754977130
 E_rel =      -0.079703045665
 
 Hessian of the SCF Energy
            1           2           3           4           5           6
    1   0.8929808  -0.0366217   0.0270714  -0.6626577   0.0646805  -0.0213313
    2  -0.0366217   0.4750920   0.2404607   0.0446738  -0.0305725  -0.0193686
    3   0.0270714   0.2404607   0.2287513  -0.0058103  -0.0280941  -0.0182702
    4  -0.6626577   0.0446738  -0.0058103   5.7904550  -0.5647753   0.0243410
    5   0.0646805  -0.0305725  -0.0280941  -0.5647753   0.3953484   1.5200316
    6  -0.0213313  -0.0193686  -0.0182702   0.0243410   1.5200316  -1.1673744
    7  -0.0088745  -0.0322500  -0.0160855  -2.5675795  -1.4717342  -1.1186144
    8   0.0135577   0.0361235   0.0144777  -1.3750239   0.3402006  -0.4948832
    9  -0.0000494   0.0139702   0.0149001  -1.0585749  -0.4891676   0.6024486
   10  -0.1044305   0.0954021   0.0551022  -0.0381881   0.0336041   0.0133950
   11   0.0966992  -0.2297366  -0.1132664   0.0060614   0.0088053   0.0020329
   12   0.0565066  -0.1130734  -0.1024109   0.0042271  -0.0023946   0.0072984
   13  -0.1227134  -0.1027601  -0.0730545  -0.0387943  -0.0183293  -0.0117151
   14  -0.1038452  -0.2025300  -0.1123659   0.0012949   0.0156998  -0.0016214
   15  -0.0699311  -0.1133276  -0.1066921  -0.0051343  -0.0036590   0.0175964
   16   0.0345579  -0.0019556  -0.0263075  -1.0658822  -0.0106802   0.0553697
   17   0.0130502  -0.0630156  -0.0205115   0.0683394   0.2881121   0.1000691
   18  -0.0022987  -0.0310717  -0.0460960   0.0211868   0.0476191   0.1978454
   19   0.0019114  -0.0035696   0.0025225  -0.1169716  -0.0738653   0.0135790
   20  -0.0196769  -0.0100695   0.0158095  -0.1573091   0.0009480  -0.0363061
   21   0.0191140   0.0077757  -0.0024618   0.0195061   0.0001514   0.0668703
   22  -0.0185205   0.0465627   0.0240850  -1.2695985   2.0274622   1.0824021
   23  -0.0247348   0.0286978   0.0030391   1.9931877  -1.0167077  -1.0789374
   24  -0.0060404   0.0157775   0.0275400   1.0215396  -1.0556089   0.3021932
   25  -0.0122534  -0.0094816   0.0124767  -0.0307832   0.0136374  -0.0374260
   26  -0.0031089  -0.0039891   0.0004509  -0.0164490  -0.0018339   0.0089831
   27  -0.0030410  -0.0011427   0.0047395  -0.0212812   0.0111221  -0.0086077
            7           8           9          10          11          12
    1  -0.0088745   0.0135577  -0.0000494  -0.1044305   0.0966992   0.0565066
    2  -0.0322500   0.0361235   0.0139702   0.0954021  -0.2297366  -0.1130734
    3  -0.0160855   0.0144777   0.0149001   0.0551022  -0.1132664  -0.1024109
    4  -2.5675795  -1.3750239  -1.0585749  -0.0381881   0.0060614   0.0042271
    5  -1.4717342   0.3402006  -0.4891676   0.0336041   0.0088053  -0.0023946
    6  -1.1186144  -0.4948832   0.6024486   0.0133950   0.0020329   0.0072984
    7   5.0239828   0.0708507   0.2774959   0.0128600  -0.0025011  -0.0008345
    8   0.0708507   0.0758172   1.0290940  -0.0086176  -0.0035090   0.0079338
    9   0.2774959   1.0290940  -1.2947172  -0.0027735   0.0082979  -0.0139005
   10   0.0128600  -0.0086176  -0.0027735   0.1263642  -0.1127510  -0.0612994
   11  -0.0025011  -0.0035090   0.0082979  -0.1127510   0.2297932   0.1221351
   12  -0.0008345   0.0079338  -0.0139005  -0.0612994   0.1221351   0.0914385
   13   0.0011905   0.0028277   0.0010108   0.0099468   0.0097850   0.0065597
   14   0.0028807   0.0005157  -0.0063528  -0.0123909  -0.0106565  -0.0089765
   15   0.0008899  -0.0054432   0.0089661  -0.0067520  -0.0078520  -0.0008776
   16  -2.5603322   1.7306747   0.8180379  -0.0048851   0.0082178  -0.0080916
   17   1.5669608   0.0462653  -0.3665617   0.0027287  -0.0013572   0.0079205
   18   0.7641452  -0.3866233   0.6643075   0.0100838  -0.0006631   0.0003891
   19  -0.0488693  -0.1910625   0.1033365  -0.0021051  -0.0012753   0.0048822
   20  -0.1939633  -0.1439085   0.1278213   0.0028678   0.0002718  -0.0003257
   21   0.1286528   0.1403338   0.0411379  -0.0033814   0.0009600  -0.0004994
   22   0.1392714  -0.2155404  -0.1450369   0.0010990  -0.0047547  -0.0027719
   23   0.0354213  -0.3299802  -0.3091713   0.0001519   0.0057039  -0.0131203
   24   0.0020395  -0.3204680  -0.0270244  -0.0046285  -0.0111430   0.0180071
   25   0.0083509  -0.0276664   0.0065536  -0.0006611   0.0005187   0.0008217
   26   0.0243351  -0.0215245  -0.0079299  -0.0009952   0.0006849  -0.0000990
   27  -0.0376888   0.0155784   0.0038819   0.0002538  -0.0005014   0.0005552
           13          14          15          16          17          18
    1  -0.1227134  -0.1038452  -0.0699311   0.0345579   0.0130502  -0.0022987
    2  -0.1027601  -0.2025300  -0.1133276  -0.0019556  -0.0630156  -0.0310717
    3  -0.0730545  -0.1123659  -0.1066921  -0.0263075  -0.0205115  -0.0460960
    4  -0.0387943   0.0012949  -0.0051343  -1.0658822   0.0683394   0.0211868
    5  -0.0183293   0.0156998  -0.0036590  -0.0106802   0.2881121   0.0476191
    6  -0.0117151  -0.0016214   0.0175964   0.0553697   0.1000691   0.1978454
    7   0.0011905   0.0028807   0.0008899  -2.5603322   1.5669608   0.7641452
    8   0.0028277   0.0005157  -0.0054432   1.7306747   0.0462653  -0.3866233
    9   0.0010108  -0.0063528   0.0089661   0.8180379  -0.3665617   0.6643075
   10   0.0099468  -0.0123909  -0.0067520  -0.0048851   0.0027287   0.0100838
   11   0.0097850  -0.0106565  -0.0078520   0.0082178  -0.0013572  -0.0006631
   12   0.0065597  -0.0089765  -0.0008776  -0.0080916   0.0079205   0.0003891
   13   0.1470070   0.1150090   0.0797062  -0.0117582  -0.0102848  -0.0087803
   14   0.1150090   0.2008469   0.1191472  -0.0030252   0.0074420  -0.0036614
   15   0.0797062   0.1191472   0.0973381   0.0003429  -0.0080522   0.0055637
   16  -0.0117582  -0.0030252   0.0003429   4.1718406  -1.3905888  -0.4110771
   17  -0.0102848   0.0074420  -0.0080522  -1.3905888   0.3735602   0.2880882
   18  -0.0087803  -0.0036614   0.0055637  -0.4110771   0.2880882  -1.1606966
   19  -0.0005545   0.0022844  -0.0037244   0.1882385  -0.0334561   0.0143826
   20   0.0020988  -0.0024163   0.0044641   0.1682299  -0.5626731   0.1766644
   21  -0.0012302   0.0007803  -0.0022920  -0.0633366  -0.0030329   0.1311265
   22   0.0154588   0.0001605   0.0003504  -0.8317158  -0.3336276  -0.3799588
   23   0.0031159  -0.0082929   0.0138370  -0.5412680   0.1199989  -0.2335703
   24   0.0061313   0.0130172  -0.0199743  -0.3904584  -0.2200881   0.2212324
   25   0.0002174  -0.0023682   0.0042525   0.0799366   0.1168781  -0.0076835
   26  -0.0014622  -0.0006086   0.0008858   0.0403953  -0.2083327   0.1432182
   27   0.0013721   0.0000333   0.0003715   0.0255208   0.2221686  -0.0136721
           19          20          21          22          23          24
    1   0.0019114  -0.0196769   0.0191140  -0.0185205  -0.0247348  -0.0060404
    2  -0.0035696  -0.0100695   0.0077757   0.0465627   0.0286978   0.0157775
    3   0.0025225   0.0158095  -0.0024618   0.0240850   0.0030391   0.0275400
    4  -0.1169716  -0.1573091   0.0195061  -1.2695985   1.9931877   1.0215396
    5  -0.0738653   0.0009480   0.0001514   2.0274622  -1.0167077  -1.0556089
    6   0.0135790  -0.0363061   0.0668703   1.0824021  -1.0789374   0.3021932
    7  -0.0488693  -0.1939633   0.1286528   0.1392714   0.0354213   0.0020395
    8  -0.1910625  -0.1439085   0.1403338  -0.2155404  -0.3299802  -0.3204680
    9   0.1033365   0.1278213   0.0411379  -0.1450369  -0.3091713  -0.0270244
   10  -0.0021051   0.0028678  -0.0033814   0.0010990   0.0001519  -0.0046285
   11  -0.0012753   0.0002718   0.0009600  -0.0047547   0.0057039  -0.0111430
   12   0.0048822  -0.0003257  -0.0004994  -0.0027719  -0.0131203   0.0180071
   13  -0.0005545   0.0020988  -0.0012302   0.0154588   0.0031159   0.0061313
   14   0.0022844  -0.0024163   0.0007803   0.0001605  -0.0082929   0.0130172
   15  -0.0037244   0.0044641  -0.0022920   0.0003504   0.0138370  -0.0199743
   16   0.1882385   0.1682299  -0.0633366  -0.8317158  -0.5412680  -0.3904584
   17  -0.0334561  -0.5626731  -0.0030329  -0.3336276   0.1199989  -0.2200881
   18   0.0143826   0.1766644   0.1311265  -0.3799588  -0.2335703   0.2212324
   19  -0.0628331   0.2547019  -0.0835983   0.0272170   0.0056735   0.0002606
   20   0.2547019   0.7551483  -0.2973496  -0.0562763  -0.0165049  -0.0289919
   21  -0.0835983  -0.2973496  -0.0574854   0.0473163   0.0035340   0.0136062
   22   0.0272170  -0.0562763   0.0473163   1.9480109  -1.4691207  -0.6201877
   23   0.0056735  -0.0165049   0.0035340  -1.4691207   1.2145543   1.6021216
   24   0.0002606  -0.0289919   0.0136062  -0.6201877   1.6021216  -0.5237069
   25   0.0139667  -0.0006728  -0.0630426  -0.0112223  -0.0024269  -0.0086560
   26   0.0405690  -0.0207957   0.1468472   0.0051342   0.0025309   0.0053836
   27  -0.0516406   0.0382141  -0.1900024  -0.0061985   0.0122675  -0.0118733
           25          26          27
    1  -0.0122534  -0.0031089  -0.0030410
    2  -0.0094816  -0.0039891  -0.0011427
    3   0.0124767   0.0004509   0.0047395
    4  -0.0307832  -0.0164490  -0.0212812
    5   0.0136374  -0.0018339   0.0111221
    6  -0.0374260   0.0089831  -0.0086077
    7   0.0083509   0.0243351  -0.0376888
    8  -0.0276664  -0.0215245   0.0155784
    9   0.0065536  -0.0079299   0.0038819
   10  -0.0006611  -0.0009952   0.0002538
   11   0.0005187   0.0006849  -0.0005014
   12   0.0008217  -0.0000990   0.0005552
   13   0.0002174  -0.0014622   0.0013721
   14  -0.0023682  -0.0006086   0.0000333
   15   0.0042525   0.0008858   0.0003715
   16   0.0799366   0.0403953   0.0255208
   17   0.1168781  -0.2083327   0.2221686
   18  -0.0076835   0.1432182  -0.0136721
   19   0.0139667   0.0405690  -0.0516406
   20  -0.0006728  -0.0207957   0.0382141
   21  -0.0630426   0.1468472  -0.1900024
   22  -0.0112223   0.0051342  -0.0061985
   23  -0.0024269   0.0025309   0.0122675
   24  -0.0086560   0.0053836  -0.0118733
   25  -0.0475516  -0.0884183   0.0927035
   26  -0.0884183   0.2538686  -0.2977400
   27   0.0927035  -0.2977400   0.2146074
 **********************************************************************
 **                                                                  **
 **                       VIBRATIONAL ANALYSIS                       **
 **                       --------------------                       **
 **                                                                  **
 **        VIBRATIONAL FREQUENCIES (CM**-1) AND NORMAL MODES         **
 **     FORCE CONSTANTS (mDYN/ANGSTROM) AND REDUCED MASSES (AMU)     **
 **                  INFRARED INTENSITIES (KM/MOL)                   **
 **                                                                  **
 **********************************************************************
 

 Mode:                 1                      2                      3
 Frequency:     -7087.47               -6234.68               -2909.80
 Force Cnst:     30.4956                24.5218                 7.2546
 Red. Mass:       1.0304                 1.0707                 1.4542
 IR Active:          YES                    YES                    YES
 IR Intens:       26.999                 17.115                105.720
 Raman Active:       YES                    YES                    YES
               X      Y      Z        X      Y      Z        X      Y      Z
 C          0.000  0.000 -0.000   -0.001 -0.003  0.002    0.018  0.007  0.011
 C          0.006  0.023 -0.030    0.007  0.034 -0.056    0.094 -0.094 -0.040
 H         -0.030 -0.450  0.861    0.003 -0.070  0.094   -0.079  0.605  0.351
 H          0.001  0.033 -0.054   -0.000 -0.039  0.061    0.055 -0.021  0.106
 H         -0.002 -0.036  0.055    0.001  0.029 -0.046   -0.033  0.089 -0.055
 O          0.002  0.014 -0.016    0.001  0.010 -0.030   -0.123  0.010  0.010
 H         -0.088 -0.069 -0.065   -0.008  0.018  0.084    0.319 -0.104 -0.408
 H          0.021  0.079 -0.097   -0.084 -0.532  0.810    0.302  0.104  0.131
 H         -0.012 -0.057 -0.099   -0.004  0.069  0.115    0.060  0.194  0.053
 TransDip  -0.012 -0.034  0.162   -0.007 -0.132 -0.008   -0.016 -0.270  0.188

 Mode:                 4                      5                      6
 Frequency:     -2339.95               -2147.03               -1941.67
 Force Cnst:      6.7653                 3.1483                 5.1637
 Red. Mass:       2.0971                 1.1592                 2.3247
 IR Active:          YES                    YES                    YES
 IR Intens:       84.528                120.842                 56.080
 Raman Active:       YES                    YES                    YES
               X      Y      Z        X      Y      Z        X      Y      Z
 C         -0.000 -0.095 -0.039   -0.002  0.004  0.029    0.021  0.006 -0.087
 C          0.053  0.240  0.110    0.004 -0.047 -0.081    0.050 -0.068  0.261
 H          0.123  0.094  0.083   -0.070  0.054  0.045    0.029  0.166  0.183
 H         -0.108 -0.123 -0.118    0.050  0.123 -0.129    0.003  0.074 -0.231
 H          0.116 -0.196 -0.015   -0.037 -0.097  0.229    0.036 -0.044 -0.036
 O         -0.059 -0.077 -0.048   -0.036  0.039 -0.012   -0.072  0.020 -0.145
 H          0.728 -0.212 -0.054    0.481  0.105  0.723   -0.342  0.286  0.329
 H         -0.367 -0.055 -0.118    0.074  0.022 -0.048   -0.086 -0.081  0.082
 H         -0.180 -0.003  0.140    0.050 -0.321 -0.013    0.653  0.037 -0.098
 TransDip  -0.084 -0.281  0.029    0.029 -0.222  0.272   -0.196 -0.116 -0.075

 Mode:                 7                      8                      9
 Frequency:     -1436.20                -709.73                -270.53
 Force Cnst:      1.9473                 0.3078                 0.0611
 Red. Mass:       1.6023                 1.0370                 1.4171
 IR Active:          YES                    YES                    YES
 IR Intens:       20.766                 45.525                378.097
 Raman Active:       YES                    YES                    YES
               X      Y      Z        X      Y      Z        X      Y      Z
 C         -0.001 -0.074  0.067    0.001 -0.004  0.013   -0.080  0.008  0.002
 C          0.010  0.136 -0.127   -0.006 -0.003 -0.042   -0.101 -0.067  0.040
 H         -0.001  0.117 -0.033   -0.002 -0.039 -0.038   -0.039 -0.276 -0.070
 H         -0.046 -0.168  0.185    0.024  0.246 -0.396   -0.104 -0.047  0.056
 H          0.027 -0.053  0.003   -0.029 -0.268  0.443   -0.035  0.034 -0.094
 O         -0.043 -0.050  0.051    0.002 -0.022 -0.002    0.074  0.071 -0.010
 H         -0.235  0.091  0.058   -0.086 -0.028 -0.047    0.593 -0.309 -0.228
 H         -0.027  0.073 -0.071   -0.000  0.003 -0.055   -0.004 -0.004  0.055
 H          0.852  0.003 -0.246    0.129  0.512  0.464    0.565  0.179 -0.052
 TransDip  -0.144  0.021  0.010   -0.028 -0.082 -0.198   -0.340 -0.422  0.307

 Mode:                10                     11                     12
 Frequency:       908.44                1101.29                1401.72
 Force Cnst:      0.6145                 0.8674                 1.7527
 Red. Mass:       1.2638                 1.2139                 1.5140
 IR Active:          YES                    YES                    YES
 IR Intens:       23.957                  7.951                 44.121
 Raman Active:       YES                    YES                    YES
               X      Y      Z        X      Y      Z        X      Y      Z
 C          0.005  0.080 -0.128    0.036  0.100  0.063    0.146 -0.013 -0.008
 C          0.002 -0.009  0.014   -0.000 -0.041 -0.023   -0.114 -0.012  0.001
 H          0.002 -0.002  0.011   -0.023 -0.029 -0.016   -0.110 -0.150 -0.068
 H         -0.063 -0.374  0.589   -0.593 -0.181 -0.137    0.717  0.181  0.212
 H         -0.051 -0.362  0.593    0.689 -0.265 -0.143    0.472 -0.180 -0.092
 O          0.002 -0.006  0.009   -0.027 -0.008 -0.007   -0.084  0.035  0.011
 H          0.001 -0.006  0.005   -0.012 -0.014 -0.010    0.042 -0.089 -0.065
 H          0.005 -0.003  0.011   -0.043 -0.074 -0.047   -0.188 -0.076 -0.052
 H          0.007 -0.011  0.002   -0.016 -0.007 -0.011    0.024  0.057 -0.024
 TransDip  -0.019 -0.068  0.140   -0.045  0.051  0.059   -0.086 -0.170  0.094

 Mode:                13                     14                     15
 Frequency:      1589.22                2428.60                3177.91
 Force Cnst:      2.9055                 5.4332                 6.2395
 Red. Mass:       1.9526                 1.5635                 1.0486
 IR Active:          YES                    YES                    YES
 IR Intens:       15.324                188.578                 29.982
 Raman Active:       YES                    YES                    YES
               X      Y      Z        X      Y      Z        X      Y      Z
 C          0.267 -0.016  0.005    0.050 -0.021 -0.013    0.061 -0.001  0.003
 C         -0.089 -0.010  0.000   -0.170  0.058  0.025    0.002 -0.001 -0.000
 H         -0.082 -0.133 -0.060   -0.035  0.235  0.114    0.001 -0.015 -0.007
 H         -0.449 -0.326 -0.215   -0.050 -0.011 -0.056   -0.309  0.532  0.310
 H         -0.514  0.438  0.205    0.127 -0.096 -0.014   -0.378 -0.511 -0.343
 O         -0.063  0.027  0.007    0.058 -0.069 -0.050   -0.004  0.002  0.001
 H          0.055 -0.067 -0.045    0.000  0.019  0.074    0.007  0.002 -0.001
 H         -0.140 -0.059 -0.038    0.511  0.608  0.447   -0.011 -0.014 -0.010
 H          0.016  0.030 -0.018   -0.035 -0.096  0.076    0.002 -0.000  0.005
 TransDip  -0.038 -0.100  0.065    0.425  0.114 -0.014    0.175  0.008 -0.010

 Mode:                16                     17                     18
 Frequency:      3278.11                4084.58                5106.01
 Force Cnst:      7.0917                10.3346                15.8289
 Red. Mass:       1.1201                 1.0514                 1.0305
 IR Active:          YES                    YES                    YES
 IR Intens:       37.368                 99.436                932.310
 Raman Active:       YES                    YES                    YES
               X      Y      Z        X      Y      Z        X      Y      Z
 C         -0.002 -0.086 -0.053    0.001  0.001 -0.002   -0.001 -0.001  0.002
 C          0.001 -0.001  0.000   -0.010 -0.010  0.006   -0.028 -0.014 -0.004
 H         -0.000 -0.005 -0.002    0.005 -0.032  0.034    0.044 -0.134  0.031
 H         -0.341  0.550  0.318   -0.003 -0.005  0.012    0.007 -0.004  0.008
 H          0.370  0.479  0.320   -0.002  0.009 -0.018    0.003  0.005  0.001
 O         -0.001  0.001  0.000    0.008 -0.048  0.018    0.002 -0.025  0.011
 H          0.003 -0.003 -0.000    0.156  0.220  0.230    0.254  0.873 -0.323
 H         -0.007 -0.008 -0.005    0.013  0.009  0.031   -0.040 -0.034 -0.021
 H          0.003  0.002 -0.001   -0.193  0.672 -0.615    0.050 -0.122  0.158
 TransDip  -0.004 -0.173 -0.092   -0.060 -0.206  0.236    0.058  0.801 -0.559

 Mode:                19                     20                     21
 Frequency:      6358.56               10219.73               11839.65
 Force Cnst:     31.9803                67.0883                87.4860
 Red. Mass:       1.3425                 1.0902                 1.0593
 IR Active:          YES                    YES                    YES
 IR Intens:      307.304                287.517                826.700
 Raman Active:       YES                    YES                    YES
               X      Y      Z        X      Y      Z        X      Y      Z
 C          0.006  0.003  0.003    0.001 -0.002 -0.001    0.000  0.002  0.001
 C         -0.106 -0.029 -0.025   -0.059  0.055  0.030   -0.048 -0.020 -0.016
 H         -0.032  0.672  0.368   -0.091  0.083  0.044    0.992  0.028  0.049
 H         -0.001  0.012 -0.000   -0.001 -0.003 -0.002    0.005  0.002  0.002
 H         -0.007 -0.001  0.008    0.003 -0.003 -0.002   -0.001  0.004  0.003
 O          0.114 -0.009  0.003    0.007 -0.004 -0.003   -0.031  0.017  0.008
 H         -0.041  0.017  0.031    0.002  0.003  0.007   -0.010 -0.047  0.027
 H         -0.537 -0.238 -0.193    0.661 -0.645 -0.350    0.064 -0.040 -0.023
 H          0.004 -0.018  0.006   -0.002  0.000 -0.001    0.002  0.004 -0.009
 TransDip  -0.555  0.081  0.030    0.456 -0.243 -0.168    0.803  0.409 -0.187

 STANDARD THERMODYNAMIC QUANTITIES AT   298.15 K  AND     1.00 ATM

   This Molecule has  9 Imaginary Frequencies
   Zero point vibrational energy:       73.614 kcal/mol

   Atom    1 Element C  Has Mass   12.00000
   Atom    2 Element C  Has Mass   12.00000
   Atom    3 Element H  Has Mass    1.00783
   Atom    4 Element H  Has Mass    1.00783
   Atom    5 Element H  Has Mass    1.00783
   Atom    6 Element O  Has Mass   15.99491
   Atom    7 Element H  Has Mass    1.00783
   Atom    8 Element H  Has Mass    1.00783
   Atom    9 Element H  Has Mass    1.00783
   Molecular Mass:    46.041890 amu
   Principal axes and moments of inertia in amu*Bohr^2:
                             1           2           3
    Eigenvalues --       16.64221   186.87495   195.53965
          X               0.99953     0.02904    -0.01001
          Y              -0.02882     0.99936     0.02141
          Z               0.01063    -0.02111     0.99972
   Rotational Symmetry Number is   1
   The Molecule is an Asymmetric Top
   Translational Enthalpy:        0.889 kcal/mol
   Rotational Enthalpy:           0.889 kcal/mol
   Vibrational Enthalpy:         73.669 kcal/mol
   gas constant (RT):             0.592 kcal/mol
   Translational Entropy:        37.406  cal/mol.K
   Rotational Entropy:           21.036  cal/mol.K
   Vibrational Entropy:           0.223  cal/mol.K

   Total Enthalpy:               76.039 kcal/mol
   Total Entropy:                58.665  cal/mol.K
Archival summary:
1\1\node018\FREQ\ProcedureUnspecified\6-31G*\126\guest94\MonMar918:26:442020MonMar918:26:442020\0\\#,FREQ,ProcedureUnspecified,6-31G*,\\0,1\O\H,1,0.665384\C,2,0.656241,1,125.408\H,3,0.655219,2,68.7013,1,-0,0\H,2,0.79689,1,72.2946,3,130.555,0\H,5,0.74,2,120.379,1,-123.759,0\C,3,1.29548,2,152.499,1,180,0\H,7,1.08153,3,120.198,2,-0,0\H,7,1.08153,3,120.199,2,180,0\\\@

 Total job time:  12.49s(wall), 28.77s(cpu) 
 Mon Mar  9 18:26:44 2020

        *************************************************************
        *                                                           *
        *  Thank you very much for using Q-Chem.  Have a nice day.  *
        *                                                           *
        *************************************************************


