                  Welcome to Q-Chem
     A Quantum Leap Into The Future Of Chemistry


 Q-Chem 5.2 (devel), Q-Chem, Inc., Pleasanton, CA (2019)

 Yihan Shao,  Zhengting Gan,  E. Epifanovsky,  A. T. B. Gilbert,  M. Wormit,  
 J. Kussmann,  A. W. Lange,  A. Behn,  Jia Deng,  Xintian Feng,  D. Ghosh,  
 M. Goldey,  P. R. Horn,  L. D. Jacobson,  I. Kaliman,  T. Kus,  A. Landau,  
 Jie Liu,  E. I. Proynov,  R. M. Richard,  R. P. Steele,  E. J. Sundstrom,  
 H. L. Woodcock III,  P. M. Zimmerman,  D. Zuev,  B. Albrecht,  E. Alguire,  
 S. A. Baeppler,  D. Barton,  Z. Benda,  Y. A. Bernard,  E. J. Berquist,  
 K. B. Bravaya,  H. Burton,  D. Casanova,  Chun-Min Chang,  Yunqing Chen,  
 A. Chien,  K. D. Closser,  M. P. Coons,  S. Coriani,  S. Dasgupta,  
 A. L. Dempwolff,  M. Diedenhofen,  Hainam Do,  R. G. Edgar,  Po-Tung Fang,  
 S. Faraji,  S. Fatehi,  Qingguo Feng,  K. D. Fenk,  J. Fosso-Tande,  
 J. Gayvert,  Qinghui Ge,  A. Ghysels,  G. Gidofalvi,  J. Gomes,  
 J. Gonthier,  A. Gunina,  D. Hait,  M. W. D. Hanson-Heine,  
 P. H. P. Harbach,  A. W. Hauser,  M. F. Herbst,  J. E. Herr,  
 E. G. Hohenstein,  Z. C. Holden,  Kerwin Hui,  B. C. Huynh,  T.-C. Jagau,  
 Hyunjun Ji,  B. Kaduk,  K. Khistyaev,  Jaehoon Kim,  P. Klunzinger,  K. Koh,  
 D. Kosenkov,  L. Koulias,  T. Kowalczyk,  C. M. Krauter,  A. Kunitsa,  
 Ka Un Lao,  A. Laurent,  K. V. Lawler,  Joonho Lee,  D. Lefrancois,  
 S. Lehtola,  D. S. Levine,  Yi-Pei Li,  You-Sheng Lin,  Fenglai Liu,  
 E. Livshits,  A. Luenser,  P. Manohar,  E. Mansoor,  S. F. Manzer,  
 Shan-Ping Mao,  Yuezhi Mao,  N. Mardirossian,  A. V. Marenich,  
 T. Markovich,  L. A. Martinez-Martinez,  S. A. Maurer,  N. J. Mayhall,  
 S. C. McKenzie,  J.-M. Mewes,  P. Morgante,  A. F. Morrison,  
 J. W. Mullinax,  K. Nanda,  T. S. Nguyen-Beck,  R. Olivares-Amaya,  
 J. A. Parkhill,  Zheng Pei,  T. M. Perrine,  F. Plasser,  P. Pokhilko,  
 S. Prager,  A. Prociuk,  E. Ramos,  D. R. Rehn,  F. Rob,  M. Scheurer,  
 M. Schneider,  N. Sergueev,  S. M. Sharada,  S. Sharma,  D. W. Small,  
 T. Stauch,  T. Stein,  Yu-Chuan Su,  A. J. W. Thom,  A. Tkatchenko,  
 T. Tsuchimochi,  N. M. Tubman,  L. Vogt,  M. L. Vidal,  O. Vydrov,  
 M. A. Watson,  J. Wenzel,  M. de Wergifosse,  T. A. Wesolowski,  A. White,  
 J. Witte,  A. Yamada,  Jun Yang,  K. Yao,  S. Yeganeh,  S. R. Yost,  
 Zhi-Qiang You,  A. Zech,  Igor Ying Zhang,  Xing Zhang,  Yan Zhao,  
 Ying Zhu,  B. R. Brooks,  G. K. L. Chan,  C. J. Cramer,  M. S. Gordon,  
 W. J. Hehre,  A. Klamt,  M. W. Schmidt,  C. D. Sherrill,  D. G. Truhlar,  
 A. Aspuru-Guzik,  R. Baer,  A. T. Bell,  N. A. Besley,  Jeng-Da Chai,  
 A. E. DePrince, III,  R. A. DiStasio Jr.,  A. Dreuw,  B. D. Dunietz,  
 T. R. Furlani,  Chao-Ping Hsu,  Yousung Jung,  Jing Kong,  D. S. Lambrecht,  
 WanZhen Liang,  C. Ochsenfeld,  V. A. Rassolov,  L. V. Slipchenko,  
 J. E. Subotnik,  T. Van Voorhis,  J. M. Herbert,  A. I. Krylov,  
 P. M. W. Gill,  M. Head-Gordon

 Contributors to earlier versions of Q-Chem not listed above: 
 R. D. Adamson,  B. Austin,  J. Baker,  G. J. O. Beran,  K. Brandhorst,  
 S. T. Brown,  E. F. C. Byrd,  A. K. Chakraborty,  C.-L. Cheng,  
 Siu Hung Chien,  D. M. Chipman,  D. L. Crittenden,  H. Dachsel,  
 R. J. Doerksen,  A. D. Dutoi,  L. Fusti-Molnar,  W. A. Goddard III,  
 A. Golubeva-Zadorozhnaya,  S. R. Gwaltney,  G. Hawkins,  A. Heyden,  
 S. Hirata,  G. Kedziora,  F. J. Keil,  C. Kelley,  Jihan Kim,  R. A. King,  
 R. Z. Khaliullin,  P. P. Korambath,  W. Kurlancheek,  A. M. Lee,  M. S. Lee,  
 S. V. Levchenko,  Ching Yeh Lin,  D. Liotard,  R. C. Lochan,  I. Lotan,  
 P. E. Maslen,  N. Nair,  D. P. O'Neill,  D. Neuhauser,  E. Neuscamman,  
 C. M. Oana,  R. Olson,  B. Peters,  R. Peverati,  P. A. Pieniazek,  
 Y. M. Rhee,  J. Ritchie,  M. A. Rohrdanz,  E. Rosta,  N. J. Russ,  
 H. F. Schaefer III,  N. E. Schultz,  N. Shenvi,  A. C. Simmonett,  A. Sodt,  
 D. Stuck,  K. S. Thanthiriwatte,  V. Vanovschi,  Tao Wang,  A. Warshel,  
 C. F. Williams,  Q. Wu,  X. Xu,  W. Zhang

 Please cite Q-Chem as follows:
 Y. Shao et al., Mol. Phys. 113, 184-215 (2015)
 DOI: 10.1080/00268976.2014.952696

 Q-Chem 5.2.1 for Intel X86 EM64T Linux

 Parts of Q-Chem use Armadillo 8.300.2 (Tropical Shenanigans).
 http://arma.sourceforge.net/

 Q-Chem begins on Sun Mar 22 17:02:24 2020  

Host: node018
0

     Scratch files written to /tmp/ypli/106206.h81/qchem11108//
NAlpha2: 26
NElect   26
Mult     1

Checking the input file for inconsistencies... 	...done.

--------------------------------------------------------------
User input:
--------------------------------------------------------------
$rem
jobtype = freq
exchange = b3lyp
basis = 6-31g*
$end

$molecule
0 1
C      0.38416068   -0.33548681    0.55222312
C     -0.36498519    0.30995312   -0.57947914
H      1.43663329   -0.11090146    0.66883059
H      0.17306013    0.97775157   -1.23999933
H      5.32091990    0.04328575   -0.06105383
O     -0.54792377    0.72960417    0.77881835
H     -1.17226075   -0.24113165   -1.04460948
H      4.59621645   -0.04328575    0.06105383
H      0.09131561   -1.32978895    0.86421589
$end
--------------------------------------------------------------
 ----------------------------------------------------------------
             Standard Nuclear Orientation (Angstroms)
    I     Atom           X                Y                Z
 ----------------------------------------------------------------
    1      C       0.2057252754     0.4304887057     0.4387800306
    2      C      -0.6116370846    -0.7809029564     0.0880504248
    3      H       1.2254617912     0.4864673433     0.0799788226
    4      H      -0.1531710020    -1.5567732828    -0.5115899219
    5      H       5.0670243008    -0.3334013804    -0.3830548607
    6      O      -0.8423887507     0.4880589317    -0.5372774846
    7      H      -1.3501470361    -1.1285901580     0.7990013009
    8      H       4.3569233789    -0.1843351323    -0.2376728464
    9      H       0.0284894283     0.9146466611     1.3905746502
 ----------------------------------------------------------------
 Molecular Point Group                 C1    NOp =  1
 Largest Abelian Subgroup              C1    NOp =  1
 Nuclear Repulsion Energy =          80.41370995 hartrees
 There are       13 alpha and       13 beta electrons
 Requested basis set is 6-31G(d)
 There are 24 shells and 57 basis functions

 Total QAlloc Memory Limit   2000 MB
 Mega-Array Size       188 MB
 MEM_STATIC part       192 MB

                       Distance Matrix (Angstroms)
             C (  1)   C (  2)   H (  3)   H (  4)   H (  5)   O (  6)
   C (  2)  1.502851
   H (  3)  1.082467  2.231866
   H (  4)  2.231865  1.082467  2.534840
   H (  5)  4.989105  5.715715  3.955273  5.363171
   O (  6)  1.433369  1.433369  2.158012  2.158013  5.968228
   H (  7)  2.231866  1.082467  3.123966  1.825854  6.573406  2.158012
   H (  8)  4.250652  5.014836  3.218218  4.722242  0.740000  5.251164
   H (  9)  1.082467  2.231865  1.825854  3.123963  5.485455  2.158013
             H (  7)   H (  8)
   H (  8)  5.876816
   H (  9)  2.534840  4.753345
 
 A cutoff of  1.0D-11 yielded    277 shell pairs
 There are      1668 function pairs
 Smallest overlap matrix eigenvalue = 7.34E-03
 Guess from superposition of atomic densities
 Warning:  Energy on first SCF cycle will be non-variational
 SAD guess density has 26.000000 electrons

 -----------------------------------------------------------------------
  General SCF calculation program by
  Eric Jon Sundstrom, Paul Horn, Yuezhi Mao, Dmitri Zuev, Alec White,
  David Stuck, Shaama M.S., Shane Yost, Joonho Lee, David Small,
  Daniel Levine, Susi Lehtola, Hugh Burton, Evgeny Epifanovsky,
  Bang C. Huynh
 -----------------------------------------------------------------------
 Exchange:     0.2000 Hartree-Fock + 0.0800 Slater + 0.7200 B88
 Correlation:  0.1900 VWN1RPA + 0.8100 LYP
 Using SG-1 standard quadrature grid
 using 2 threads for integral computing
 -------------------------------------------------------
 OpenMP Integral computing Module                
 Release: version 2.0, May 2017, Q-Chem Inc. Pleasanton 
 -------------------------------------------------------
 A restricted SCF calculation will be
 performed using DIIS
 SCF converges when DIIS error is below 1.0e-08
 ---------------------------------------
  Cycle       Energy         DIIS error
 ---------------------------------------
    1    -155.2151782752      1.01e-01  
    2    -154.9231575527      9.65e-03  
    3    -154.9053508178      1.29e-02  
    4    -154.9579129260      2.55e-03  
    5    -154.9598474352      7.24e-04  
    6    -154.9600275948      7.66e-05  
    7    -154.9600296218      2.82e-06  
    8    -154.9600296262      3.85e-07  
    9    -154.9600296263      1.74e-07  
   10    -154.9600296263      6.44e-08  
   11    -154.9600296263      6.07e-09  Convergence criterion met
 ---------------------------------------
 SCF time:   CPU 4.02s  wall 2.00s 
 SCF   energy in the final basis set =     -154.9600296263
 Total energy in the final basis set =     -154.9600296263
 
 --------------------------------------------------------------
 
                    Orbital Energies (a.u.)
 --------------------------------------------------------------
 
 Alpha MOs
 -- Occupied --
-19.1621 -10.2398 -10.2395  -1.0661  -0.6747  -0.6354  -0.5082  -0.4774
 -0.4394  -0.4015  -0.3899  -0.3030  -0.2713
 -- Virtual --
  0.0731   0.1000   0.1122   0.1260   0.1487   0.1619   0.2202   0.2715
  0.4605   0.5372   0.5537   0.5754   0.5834   0.6098   0.6744   0.8043
  0.8350   0.8914   0.9051   0.9218   0.9712   0.9874   1.0131   1.1468
  1.3358   1.4148   1.5019   1.5123   1.8089   1.8101   1.8315   1.9849
  2.1018   2.1038   2.2542   2.2568   2.4508   2.4660   2.5010   2.8170
  2.9003   3.7411   4.1550   4.3309
 --------------------------------------------------------------
 
          Ground-State Mulliken Net Atomic Charges

     Atom                 Charge (a.u.)
  ----------------------------------------
      1 C                    -0.097473
      2 C                    -0.096498
      3 H                     0.153139
      4 H                     0.153599
      5 H                     0.005101
      6 O                    -0.420126
      7 H                     0.153613
      8 H                    -0.005089
      9 H                     0.153734
  ----------------------------------------
  Sum of atomic charges =     0.000000

 -----------------------------------------------------------------
                    Cartesian Multipole Moments
 -----------------------------------------------------------------
    Charge (ESU x 10^10)
                 0.0000
    Dipole Moment (Debye)
         X       1.0486      Y      -1.0856      Z       1.3013
       Tot       1.9928
    Quadrupole Moments (Debye-Ang)
        XX     -20.0958     XY       1.5468     YY     -19.6083
        XZ      -1.4884     YZ       1.2253     ZZ     -20.3932
    Octopole Moments (Debye-Ang^2)
       XXX      -0.3401    XXY      -1.6807    XYY      -2.6744
       YYY       0.4652    XXZ      -0.2859    XYZ       0.1928
       YYZ      -0.1810    XZZ      -2.6317    YZZ       0.7058
       ZZZ       0.0383
    Hexadecapole Moments (Debye-Ang^3)
      XXXX    -276.3989   XXXY      -5.1849   XXYY     -67.2814
      XYYY       0.2996   YYYY     -69.6832   XXXZ      -6.1274
      XXYZ       0.1851   XYYZ      -0.0549   YYYZ      -0.1688
      XXZZ     -62.5504   XYZZ       0.5509   YYZZ     -18.7699
      XZZZ       2.1594   YZZZ       0.6917   ZZZZ     -46.1611
 -----------------------------------------------------------------
 Calculating MO derivatives via CPSCF
    1     0    30    0.0480233  
    2     4    26    0.0051931  
    3     6    24    0.0004117  
    4    17    13    0.0000125  
    5    30     0    0.0000003  Converged
 Time for AOints: 0.4 s (CPU) 0.2 s (wall)
 ------------------------------------------------------------------------------
                     AOints        : Timing summary (seconds)
 ------------------------------------------------------------------------------
     job step          cpu (% of tot)      sys (% of tot)     wall (% of tot)
 ------------------------------------------------------------------------------
  AOints            0.3730E+00 ( 4.6)   0.4000E-05 (12.5)   0.2189E+00 ( 5.2)
 ------------------------------------------------------------------------------
   Grand Totals     0.8167E+01          0.3200E-04          0.4213E+01
 ------------------------------------------------------------------------------
 Polarizability Matrix (a.u.)
            1           2           3
    1 -29.9362674  -2.7603492   1.6916846
    2  -2.7603492 -25.4539745  -2.7992220
    3   1.6916846  -2.7992220 -20.9056560
 Calculating analytic Hessian of the SCF energy
 
 Direct stationary perturbation theory relativistic correction:
 
 rels  =       0.047405775787
 relv  =      -0.197885802032
 rel2e =       0.071889834022
 E_rel =      -0.078590192223
 
 Hessian of the SCF Energy
            1           2           3           4           5           6
    1   0.6215386   0.0734925  -0.0797486  -0.0977254  -0.1235588   0.0092751
    2   0.0734925   0.3479816   0.1766376  -0.0775915  -0.1614723  -0.0393585
    3  -0.0797486   0.1766376   0.5529215  -0.0057933  -0.0811778  -0.0428421
    4  -0.0977254  -0.0775915  -0.0057933   0.4492707   0.0353744  -0.2253489
    5  -0.1235588  -0.1614723  -0.0811778   0.0353744   0.6142349   0.0545411
    6   0.0092751  -0.0393585  -0.0428421  -0.2253489   0.0545411   0.4598807
    7  -0.3007420  -0.0135008   0.1070366  -0.0061310   0.0031986  -0.0021263
    8  -0.0153954  -0.0411512  -0.0018196  -0.0277722  -0.0003627   0.0135497
    9   0.1092161   0.0006633  -0.0955755  -0.0019204   0.0000360  -0.0056086
   10   0.0105592  -0.0158524  -0.0163791  -0.1003630   0.0850545   0.0854957
   11   0.0081887  -0.0118302  -0.0027193   0.0864798  -0.1845764  -0.1176625
   12   0.0071473  -0.0052346  -0.0108881   0.0846558  -0.1212014  -0.1524460
   13   0.0000987  -0.0000135   0.0000068   0.0000007   0.0000176   0.0000010
   14  -0.0000386   0.0000050  -0.0000046   0.0000285  -0.0000205  -0.0000081
   15   0.0000214   0.0000085  -0.0000036  -0.0000019  -0.0000094  -0.0000092
   16  -0.1518045   0.0046811  -0.0791378  -0.0480917   0.0596511  -0.0020196
   17   0.0366115  -0.0235849   0.0191400   0.0277373  -0.1832216   0.0636530
   18  -0.0893467  -0.0098151  -0.1456875   0.0083449   0.0926974  -0.0895694
   19  -0.0144007  -0.0017459   0.0141641  -0.1941596  -0.0569923   0.1453984
   20  -0.0066343  -0.0082872   0.0124707  -0.0532588  -0.0726434   0.0501927
   21  -0.0156670  -0.0026210   0.0106112   0.1446018   0.0491303  -0.1719848
   22  -0.0002811  -0.0000257   0.0000292   0.0000018  -0.0000306  -0.0000055
   23   0.0000856  -0.0000021  -0.0000035  -0.0000445   0.0000272   0.0000113
   24  -0.0000158  -0.0000087  -0.0000118   0.0000024   0.0000123   0.0000099
   25  -0.0672428   0.0305563   0.0598220  -0.0028024  -0.0027144  -0.0106699
   26   0.0272489  -0.1016587  -0.1225235   0.0090471  -0.0119653  -0.0249186
   27   0.0591182  -0.1202714  -0.2685241  -0.0045403   0.0059715   0.0025694
            7           8           9          10          11          12
    1  -0.3007420  -0.0153954   0.1092161   0.0105592   0.0081887   0.0071473
    2  -0.0135008  -0.0411512   0.0006633  -0.0158524  -0.0118302  -0.0052346
    3   0.1070366  -0.0018196  -0.0955755  -0.0163791  -0.0027193  -0.0108881
    4  -0.0061310  -0.0277722  -0.0019204  -0.1003630   0.0864798   0.0846558
    5   0.0031986  -0.0003627   0.0000360   0.0850545  -0.1845764  -0.1212014
    6  -0.0021263   0.0135497  -0.0056086   0.0854957  -0.1176625  -0.1524460
    7   0.3271253   0.0191383  -0.1030273   0.0001003  -0.0003683  -0.0000497
    8   0.0191383   0.0389991   0.0016361   0.0017818   0.0005878   0.0006801
    9  -0.1030273   0.0016361   0.0930976  -0.0002366  -0.0004960   0.0011209
   10   0.0001003   0.0017818  -0.0002366   0.0990464  -0.0921032  -0.0861581
   11  -0.0003683   0.0005878  -0.0004960  -0.0921032   0.2102632   0.1240898
   12  -0.0000497   0.0006801   0.0011209  -0.0861581   0.1240898   0.1497178
   13  -0.0000285   0.0000015  -0.0000053   0.0000064   0.0000033   0.0000056
   14   0.0000015  -0.0000443   0.0000006   0.0000068   0.0000118   0.0000081
   15  -0.0000109  -0.0000037  -0.0000306   0.0000018   0.0000070  -0.0000019
   16  -0.0199482   0.0114141  -0.0285157  -0.0029084   0.0029725  -0.0108053
   17  -0.0068824   0.0003085  -0.0051879   0.0101338  -0.0244183   0.0176857
   18  -0.0043293  -0.0050490   0.0113434   0.0032376  -0.0083747   0.0190642
   19   0.0007366  -0.0027025   0.0003985  -0.0061048  -0.0050166   0.0054780
   20   0.0002068  -0.0007943   0.0000720   0.0145187   0.0101860  -0.0141872
   21   0.0001813  -0.0033594   0.0007977   0.0124640   0.0046889  -0.0078773
   22   0.0000381   0.0000382  -0.0000356  -0.0000018   0.0000016  -0.0000027
   23  -0.0000047   0.0000468   0.0000076  -0.0000090  -0.0000158  -0.0000103
   24   0.0000126   0.0000006   0.0000493  -0.0000030  -0.0000093   0.0000015
   25  -0.0011506   0.0134962   0.0241263  -0.0003343  -0.0001577  -0.0002708
   26  -0.0017891   0.0024102   0.0032684  -0.0035311  -0.0002081  -0.0018302
   27   0.0023130  -0.0056348  -0.0051941   0.0015776   0.0004761   0.0013089
           13          14          15          16          17          18
    1   0.0000987  -0.0000386   0.0000214  -0.1518045   0.0366115  -0.0893467
    2  -0.0000135   0.0000050   0.0000085   0.0046811  -0.0235849  -0.0098151
    3   0.0000068  -0.0000046  -0.0000036  -0.0791378   0.0191400  -0.1456875
    4   0.0000007   0.0000285  -0.0000019  -0.0480917   0.0277373   0.0083449
    5   0.0000176  -0.0000205  -0.0000094   0.0596511  -0.1832216   0.0926974
    6   0.0000010  -0.0000081  -0.0000092  -0.0020196   0.0636530  -0.0895694
    7  -0.0000285   0.0000015  -0.0000109  -0.0199482  -0.0068824  -0.0043293
    8   0.0000015  -0.0000443  -0.0000037   0.0114141   0.0003085  -0.0050490
    9  -0.0000053   0.0000006  -0.0000306  -0.0285157  -0.0051879   0.0113434
   10   0.0000064   0.0000068   0.0000018  -0.0029084   0.0101338   0.0032376
   11   0.0000033   0.0000118   0.0000070   0.0029725  -0.0244183  -0.0083747
   12   0.0000056   0.0000081  -0.0000019  -0.0108053   0.0176857   0.0190642
   13   0.3543686  -0.0747065  -0.0728609  -0.0000506   0.0000006  -0.0000249
   14  -0.0747065   0.0141593   0.0152892  -0.0000015   0.0000272  -0.0000004
   15  -0.0728609   0.0152892   0.0133868   0.0000090  -0.0000055   0.0000213
   16  -0.0000506  -0.0000015   0.0000090   0.2033507  -0.0526819   0.1181330
   17   0.0000006   0.0000272  -0.0000055  -0.0526819   0.2394226  -0.0963350
   18  -0.0000249  -0.0000004   0.0000213   0.1181330  -0.0963350   0.2321780
   19  -0.0000075   0.0000007  -0.0000045   0.0168029   0.0011172  -0.0131153
   20  -0.0000017   0.0000079   0.0000021  -0.0188686  -0.0158444   0.0136216
   21   0.0000015   0.0000052   0.0000031   0.0098136   0.0124807  -0.0091397
   22  -0.3543602   0.0747089   0.0728646   0.0001119   0.0000091   0.0000463
   23   0.0747025  -0.0141464  -0.0152914  -0.0000056  -0.0000401  -0.0000030
   24   0.0728644  -0.0152927  -0.0133741  -0.0000174   0.0000053  -0.0000205
   25  -0.0000278   0.0000002  -0.0000186   0.0025380  -0.0160453  -0.0229456
   26  -0.0000039   0.0000001   0.0000032  -0.0071612   0.0073510   0.0132581
   27   0.0000118   0.0000028   0.0000081  -0.0074599  -0.0114364  -0.0181897
           19          20          21          22          23          24
    1  -0.0144007  -0.0066343  -0.0156670  -0.0002811   0.0000856  -0.0000158
    2  -0.0017459  -0.0082872  -0.0026210  -0.0000257  -0.0000021  -0.0000087
    3   0.0141641   0.0124707   0.0106112   0.0000292  -0.0000035  -0.0000118
    4  -0.1941596  -0.0532588   0.1446018   0.0000018  -0.0000445   0.0000024
    5  -0.0569923  -0.0726434   0.0491303  -0.0000306   0.0000272   0.0000123
    6   0.1453984   0.0501927  -0.1719848  -0.0000055   0.0000113   0.0000099
    7   0.0007366   0.0002068   0.0001813   0.0000381  -0.0000047   0.0000126
    8  -0.0027025  -0.0007943  -0.0033594   0.0000382   0.0000468   0.0000006
    9   0.0003985   0.0000720   0.0007977  -0.0000356   0.0000076   0.0000493
   10  -0.0061048   0.0145187   0.0124640  -0.0000018  -0.0000090  -0.0000030
   11  -0.0050166   0.0101860   0.0046889   0.0000016  -0.0000158  -0.0000093
   12   0.0054780  -0.0141872  -0.0078773  -0.0000027  -0.0000103   0.0000015
   13  -0.0000075  -0.0000017   0.0000015  -0.3543602   0.0747025   0.0728644
   14   0.0000007   0.0000079   0.0000052   0.0747089  -0.0141464  -0.0152927
   15  -0.0000045   0.0000021   0.0000031   0.0728646  -0.0152914  -0.0133741
   16   0.0168029  -0.0188686   0.0098136   0.0001119  -0.0000056  -0.0000174
   17   0.0011172  -0.0158444   0.0124807   0.0000091  -0.0000401   0.0000053
   18  -0.0131153   0.0136216  -0.0091397   0.0000463  -0.0000030  -0.0000205
   19   0.1960339   0.0647012  -0.1517977   0.0000106  -0.0000010   0.0000055
   20   0.0647012   0.0864607  -0.0616997   0.0000068  -0.0000102  -0.0000033
   21  -0.1517977  -0.0616997   0.1778642  -0.0000011  -0.0000074  -0.0000039
   22   0.0000106   0.0000068  -0.0000011   0.3544234  -0.0747206  -0.0728744
   23  -0.0000010  -0.0000102  -0.0000074  -0.0747206   0.0141431   0.0152979
   24   0.0000055  -0.0000033  -0.0000039  -0.0728744   0.0152979   0.0133579
   25   0.0010886  -0.0006701   0.0004035   0.0000573  -0.0000025   0.0000257
   26   0.0006393   0.0009249   0.0013824   0.0000124  -0.0000024  -0.0000022
   27  -0.0005269  -0.0004688  -0.0002706  -0.0000209  -0.0000011  -0.0000083
           25          26          27
    1  -0.0672428   0.0272489   0.0591182
    2   0.0305563  -0.1016587  -0.1202714
    3   0.0598220  -0.1225235  -0.2685241
    4  -0.0028024   0.0090471  -0.0045403
    5  -0.0027144  -0.0119653   0.0059715
    6  -0.0106699  -0.0249186   0.0025694
    7  -0.0011506  -0.0017891   0.0023130
    8   0.0134962   0.0024102  -0.0056348
    9   0.0241263   0.0032684  -0.0051941
   10  -0.0003343  -0.0035311   0.0015776
   11  -0.0001577  -0.0002081   0.0004761
   12  -0.0002708  -0.0018302   0.0013089
   13  -0.0000278  -0.0000039   0.0000118
   14   0.0000002   0.0000001   0.0000028
   15  -0.0000186   0.0000032   0.0000081
   16   0.0025380  -0.0071612  -0.0074599
   17  -0.0160453   0.0073510  -0.0114364
   18  -0.0229456   0.0132581  -0.0181897
   19   0.0010886   0.0006393  -0.0005269
   20  -0.0006701   0.0009249  -0.0004688
   21   0.0004035   0.0013824  -0.0002706
   22   0.0000573   0.0000124  -0.0000209
   23  -0.0000025  -0.0000024  -0.0000011
   24   0.0000257  -0.0000022  -0.0000083
   25   0.0678740  -0.0244626  -0.0504726
   26  -0.0244626   0.1031483   0.1313623
   27  -0.0504726   0.1313623   0.2883004
 **********************************************************************
 **                                                                  **
 **                       VIBRATIONAL ANALYSIS                       **
 **                       --------------------                       **
 **                                                                  **
 **        VIBRATIONAL FREQUENCIES (CM**-1) AND NORMAL MODES         **
 **     FORCE CONSTANTS (mDYN/ANGSTROM) AND REDUCED MASSES (AMU)     **
 **                  INFRARED INTENSITIES (KM/MOL)                   **
 **                                                                  **
 **********************************************************************
 

 Mode:                 1                      2                      3
 Frequency:      -284.10                -283.01                 -66.17
 Force Cnst:      0.0480                 0.0476                 0.0048
 Red. Mass:       1.0087                 1.0087                 1.8520
 IR Active:          YES                    YES                    YES
 IR Intens:        0.040                  0.063                  4.982
 Raman Active:       YES                    YES                    YES
               X      Y      Z        X      Y      Z        X      Y      Z
 C         -0.003  0.002  0.001   -0.002 -0.000  0.002   -0.100  0.006  0.156
 C          0.000 -0.000 -0.001    0.005 -0.003 -0.003   -0.041  0.005  0.019
 H         -0.001  0.002  0.007   -0.002  0.007  0.001   -0.004 -0.048  0.414
 H          0.006 -0.001  0.005    0.009  0.003 -0.008    0.111 -0.028  0.176
 H         -0.163 -0.129 -0.636   -0.106 -0.643  0.155   -0.029  0.069 -0.504
 O          0.003 -0.002 -0.006   -0.003 -0.001  0.003    0.139 -0.019 -0.100
 H         -0.004  0.000 -0.005    0.008 -0.011 -0.004   -0.237  0.049 -0.166
 H          0.169  0.143  0.709    0.111  0.713 -0.173   -0.028  0.066 -0.497
 H         -0.011  0.004 -0.001   -0.004 -0.006  0.004   -0.327  0.066  0.081
 TransDip  -0.000 -0.001 -0.006   -0.001 -0.008  0.001   -0.053  0.006  0.047

 Mode:                 4                      5                      6
 Frequency:        31.19                  56.68                 780.83
 Force Cnst:      0.0006                 0.0031                 0.3679
 Red. Mass:       1.0511                 1.6147                 1.0243
 IR Active:          YES                    YES                    YES
 IR Intens:        0.019                  1.265                  0.170
 Raman Active:       YES                    YES                    YES
               X      Y      Z        X      Y      Z        X      Y      Z
 C         -0.023 -0.011 -0.002    0.086 -0.118 -0.041    0.007 -0.003 -0.006
 C         -0.048  0.004  0.007   -0.148  0.015  0.044    0.006 -0.003 -0.008
 H         -0.023 -0.036 -0.005    0.087 -0.348 -0.078    0.009  0.491  0.105
 H         -0.067 -0.009  0.010   -0.323 -0.107  0.068   -0.456 -0.191 -0.100
 H          0.701  0.013 -0.036   -0.080  0.519  0.060   -0.001  0.004 -0.010
 O         -0.025  0.005  0.000    0.070  0.030 -0.011    0.021 -0.007 -0.021
 H         -0.054  0.024  0.011   -0.196  0.203  0.086    0.209  0.273  0.352
 H          0.701  0.011 -0.036   -0.081  0.512  0.060    0.000  0.005 -0.008
 H         -0.010 -0.001 -0.004    0.223 -0.028 -0.061   -0.252 -0.401  0.158
 TransDip  -0.003 -0.003  0.001   -0.028 -0.023  0.003    0.008 -0.003 -0.011

 Mode:                 7                      8                      9
 Frequency:       862.22                 864.79                1000.41
 Force Cnst:      1.6388                 4.1839                 0.5964
 Red. Mass:       3.7415                 9.4953                 1.0114
 IR Active:          YES                    YES                    YES
 IR Intens:       47.361                  8.623                  0.001
 Raman Active:       YES                    YES                    YES
               X      Y      Z        X      Y      Z        X      Y      Z
 C          0.046  0.244 -0.038    0.367 -0.059  0.353   -0.008  0.001  0.010
 C         -0.190 -0.080 -0.147   -0.093  0.446 -0.226    0.007 -0.003 -0.010
 H         -0.003  0.408 -0.165    0.234  0.083  0.094   -0.167  0.303 -0.373
 H         -0.313 -0.047 -0.295    0.037  0.268  0.047    0.233 -0.198  0.402
 H          0.000 -0.001  0.001   -0.001  0.010 -0.002    0.000  0.000  0.000
 O          0.151 -0.169  0.194   -0.240 -0.337 -0.112    0.000  0.001 -0.000
 H         -0.345 -0.046 -0.282    0.123  0.245 -0.053   -0.341  0.237 -0.265
 H          0.000  0.001 -0.000   -0.001  0.011 -0.003    0.000  0.001 -0.000
 H         -0.022  0.427 -0.138    0.149  0.119  0.186    0.279 -0.329  0.239
 TransDip  -0.115  0.122 -0.143    0.057  0.070  0.026   -0.000  0.001  0.001

 Mode:                10                     11                     12
 Frequency:      1100.13                1105.60                1138.06
 Force Cnst:      0.9358                 0.9844                 0.9890
 Red. Mass:       1.3123                 1.3669                 1.2960
 IR Active:          YES                    YES                    YES
 IR Intens:        4.394                  0.151                  3.198
 Raman Active:       YES                    YES                    YES
               X      Y      Z        X      Y      Z        X      Y      Z
 C          0.001 -0.102  0.032    0.036 -0.088  0.067    0.060 -0.023 -0.063
 C         -0.084 -0.017 -0.067    0.076 -0.032  0.079    0.052 -0.019 -0.054
 H         -0.120  0.413 -0.219   -0.079  0.457 -0.170    0.248 -0.051  0.423
 H          0.363 -0.060  0.323   -0.393 -0.014 -0.300    0.068 -0.337  0.343
 H          0.001  0.003 -0.000    0.000 -0.001 -0.000   -0.000 -0.001  0.006
 O          0.032  0.045  0.013   -0.033  0.036 -0.045   -0.063  0.023  0.066
 H          0.349 -0.072  0.363   -0.327 -0.043 -0.346   -0.236  0.388 -0.176
 H          0.001  0.003 -0.001    0.000  0.001 -0.001   -0.000 -0.001  0.006
 H         -0.108  0.409 -0.252   -0.000  0.453 -0.215   -0.422  0.138 -0.251
 TransDip   0.035  0.055  0.017   -0.008  0.007 -0.007    0.039 -0.013 -0.040

 Mode:                13                     14                     15
 Frequency:      1159.09                1246.68                1515.03
 Force Cnst:      1.1297                 3.2875                 1.4506
 Red. Mass:       1.4272                 3.5902                 1.0726
 IR Active:          YES                    YES                    YES
 IR Intens:        0.004                 17.988                  1.032
 Raman Active:       YES                    YES                    YES
               X      Y      Z        X      Y      Z        X      Y      Z
 C         -0.090  0.033  0.095   -0.197 -0.186 -0.121   -0.039 -0.030 -0.026
 C          0.092 -0.031 -0.102    0.112  0.274  0.013   -0.016 -0.046 -0.000
 H         -0.173 -0.403 -0.189   -0.295 -0.047 -0.321    0.130  0.252  0.436
 H         -0.320 -0.378  0.016    0.006  0.397 -0.193    0.256  0.326 -0.237
 H         -0.001 -0.011 -0.007    0.001  0.000  0.000   -0.000 -0.002 -0.000
 O         -0.001 -0.000  0.003    0.109 -0.113  0.137   -0.009 -0.015 -0.003
 H          0.169  0.437  0.196   -0.062  0.419 -0.126   -0.087  0.450  0.139
 H         -0.001 -0.010 -0.006    0.000  0.000 -0.000    0.000 -0.001  0.001
 H          0.326  0.351  0.019   -0.365 -0.025 -0.255    0.503  0.116  0.025
 TransDip  -0.001  0.002 -0.001   -0.072  0.074 -0.088   -0.021 -0.023 -0.009

 Mode:                16                     17                     18
 Frequency:      1547.96                3175.81                3183.35
 Force Cnst:      1.7208                 6.2018                 6.2902
 Red. Mass:       1.2189                 1.0436                 1.0535
 IR Active:          YES                    YES                    YES
 IR Intens:        4.559                 36.356                 11.636
 Raman Active:       YES                    YES                    YES
               X      Y      Z        X      Y      Z        X      Y      Z
 C          0.069  0.032  0.053   -0.030 -0.022 -0.020   -0.031 -0.022 -0.021
 C         -0.014 -0.095  0.017   -0.010 -0.037  0.001    0.012  0.046 -0.002
 H         -0.100 -0.209 -0.413    0.489  0.021 -0.191    0.439  0.017 -0.172
 H          0.269  0.334 -0.286   -0.210  0.332  0.276    0.235 -0.368 -0.306
 H          0.000  0.000  0.000    0.000 -0.000  0.000    0.000 -0.000 -0.000
 O         -0.014  0.014 -0.018   -0.001 -0.002 -0.000    0.000 -0.000  0.000
 H         -0.128  0.481  0.152    0.322  0.133 -0.307   -0.356 -0.147  0.343
 H         -0.000 -0.000 -0.000   -0.000 -0.000  0.000   -0.000 -0.000 -0.000
 H         -0.464 -0.076 -0.011   -0.105  0.232  0.457   -0.096  0.208  0.414
 TransDip   0.037 -0.038  0.043   -0.111 -0.150 -0.048   -0.056  0.067 -0.066

 Mode:                19                     20                     21
 Frequency:      3261.49                3275.39                4493.09
 Force Cnst:      7.0360                 7.0949                11.9875
 Red. Mass:       1.1226                 1.1225                 1.0078
 IR Active:          YES                    YES                    YES
 IR Intens:        0.198                 64.585                  0.066
 Raman Active:       YES                    YES                    YES
               X      Y      Z        X      Y      Z        X      Y      Z
 C         -0.049  0.017  0.054   -0.046  0.016  0.050   -0.000  0.000  0.000
 C          0.046 -0.016 -0.050   -0.049  0.017  0.054    0.000 -0.000 -0.000
 H          0.480  0.027 -0.178    0.449  0.036 -0.168    0.000  0.000 -0.000
 H         -0.200  0.333  0.267    0.205 -0.359 -0.291   -0.000  0.000 -0.000
 H          0.000 -0.000 -0.000    0.000 -0.000  0.001   -0.679  0.142  0.139
 O          0.000 -0.000 -0.000    0.001 -0.001 -0.002    0.000  0.000  0.000
 H         -0.339 -0.150  0.321    0.366  0.163 -0.333    0.000  0.000 -0.000
 H         -0.000 -0.000 -0.000   -0.000 -0.000  0.001    0.679 -0.142 -0.139
 H          0.092 -0.232 -0.449    0.084 -0.226 -0.417    0.000  0.000 -0.000
 TransDip  -0.012  0.004  0.006   -0.173  0.058  0.182   -0.007  0.004  0.002

 STANDARD THERMODYNAMIC QUANTITIES AT   298.15 K  AND     1.00 ATM

   This Molecule has  3 Imaginary Frequencies
   Zero point vibrational energy:       42.598 kcal/mol

   Atom    1 Element C  Has Mass   12.00000
   Atom    2 Element C  Has Mass   12.00000
   Atom    3 Element H  Has Mass    1.00783
   Atom    4 Element H  Has Mass    1.00783
   Atom    5 Element H  Has Mass    1.00783
   Atom    6 Element O  Has Mass   15.99491
   Atom    7 Element H  Has Mass    1.00783
   Atom    8 Element H  Has Mass    1.00783
   Atom    9 Element H  Has Mass    1.00783
   Molecular Mass:    46.041890 amu
   Principal axes and moments of inertia in amu*Bohr^2:
                             1           2           3
    Eigenvalues --      100.17476   259.91664   291.47441
          X               0.99771     0.00221    -0.06760
          Y               0.00829     0.98795     0.15454
          Z               0.06712    -0.15475     0.98567
   Rotational Symmetry Number is   1
   The Molecule is an Asymmetric Top
   Translational Enthalpy:        0.889 kcal/mol
   Rotational Enthalpy:           0.889 kcal/mol
   Vibrational Enthalpy:         43.887 kcal/mol
   gas constant (RT):             0.592 kcal/mol
   Translational Entropy:        37.406  cal/mol.K
   Rotational Entropy:           23.544  cal/mol.K
   Vibrational Entropy:          11.241  cal/mol.K

   Total Enthalpy:               46.257 kcal/mol
   Total Entropy:                72.191  cal/mol.K
Archival summary:
1\1\node018\FREQ\ProcedureUnspecified\6-31G*\126\guest94\SunMar2217:02:352020SunMar2217:02:352020\0\\#,FREQ,ProcedureUnspecified,6-31G*,\\0,1\O\C,1,1.43337\H,2,1.08247,1,117.456\H,2,1.08247,1,117.455,3,-143.766,0\C,1,1.43337,2,63.2339,3,-108.117,0\H,5,1.08247,1,117.456,2,-108.117,0\H,5,1.08247,1,117.455,2,108.117,0\H,7,3.21822,5,159.816,1,-135.915,0\H,8,0.74,7,174.33,5,136.409,0\\\@

 Total job time:  10.92s(wall), 29.14s(cpu) 
 Sun Mar 22 17:02:35 2020

        *************************************************************
        *                                                           *
        *  Thank you very much for using Q-Chem.  Have a nice day.  *
        *                                                           *
        *************************************************************


