 *******************************************************************************
 ** Site#: 33848        For non-commercial use only    Version 17.240L 64BITS **
 *******************************************************************************
 ** Cite this program as: MOPAC2016, Version: 17.240L, James J. P. Stewart,   **
 ** Stewart Computational Chemistry, web-site: HTTP://OpenMOPAC.net.          **
 *******************************************************************************
 **                                                                           **
 **                                MOPAC2016                                  **
 **                                                                           **
 *******************************************************************************

                              PM7 CALCULATION RESULTS


 *******************************************************************************
 *  CALCULATION DONE:                                Sat Sep 12 15:37:06 2020  *
 *  PM7        - The PM7 Hamiltonian to be used
 *  SINGLET    - SPIN STATE DEFINED AS A SINGLET
 *
 *
 *
 *                 CHARGE ON SYSTEM = 0
 *
 *
 *
 *  T=         - A TIME OF 172800.0 SECONDS REQUESTED
 *  DUMP=N     - RESTART FILE WRITTEN EVERY  7200.000 SECONDS
 *******************************************************************************
CHARGE=0 SINGLET PM7


   ATOM   CHEMICAL          X               Y               Z
  NUMBER   SYMBOL      (ANGSTROMS)     (ANGSTROMS)     (ANGSTROMS)
 
     1      Ni          1.25216979     -0.42969469      0.08952828   
     2      Ni          3.29921062      0.25274366      0.84140538   
     3      Ni          1.71819054      1.07666634     -1.81573274   
     4      Ni          2.56685013     -2.54941367     -0.94813941   
     5      Ni          1.11658910     -1.16310220     -2.13419634   
     6      Ni          3.27049067     -0.55577965     -1.52610546   
     7       H         -2.41706124     -1.05596104      0.94058685   
     8       H         -1.62461028     -2.31127521     -0.69102088   
     9       O         -1.08476219      0.37797018     -0.87945295   
    10       C         -1.03400968      1.74701730     -0.87175999   
    11       C         -0.83124392      2.37166803      0.44924259   
    12       C         -0.66521061      1.17662654      1.29227992   
    13       C         -0.57287879     -0.00402080      0.37835133   
    14       C         -1.31698735     -1.23741111      0.89885862   
    15       O         -1.02225090     -2.34874757      0.09169749   
    16       H         -1.12317823      2.32247609     -1.78239051   
    17       H         -1.70678320      2.98964156      0.73892461   
    18       H         -1.25861199      1.08424997      2.18994901   
    19       H         -0.97647805     -1.46755785      1.92823583   
    20       H          0.10281196      2.97246844      0.45905927   
    21       H          2.28983507     -3.22000076      0.38518628   
 


          CARTESIAN COORDINATES 

    NO.       ATOM         X         Y         Z

     1        Ni        1.2522   -0.4297    0.0895
     2        Ni        3.2992    0.2527    0.8414
     3        Ni        1.7182    1.0767   -1.8157
     4        Ni        2.5669   -2.5494   -0.9481
     5        Ni        1.1166   -1.1631   -2.1342
     6        Ni        3.2705   -0.5558   -1.5261
     7         H       -2.4171   -1.0560    0.9406
     8         H       -1.6246   -2.3113   -0.6910
     9         O       -1.0848    0.3780   -0.8795
    10         C       -1.0340    1.7470   -0.8718
    11         C       -0.8312    2.3717    0.4492
    12         C       -0.6652    1.1766    1.2923
    13         C       -0.5729   -0.0040    0.3784
    14         C       -1.3170   -1.2374    0.8989
    15         O       -1.0223   -2.3487    0.0917
    16         H       -1.1232    2.3225   -1.7824
    17         H       -1.7068    2.9896    0.7389
    18         H       -1.2586    1.0842    2.1899
    19         H       -0.9765   -1.4676    1.9282
    20         H        0.1028    2.9725    0.4591
    21         H        2.2898   -3.2200    0.3852

 General Reference for PM7:
 "Optimization of Parameters for Semiempirical Methods VI: More Modifications to the 
 NDDO Approximations and Re-optimization of Parameters", J. J. P. Stewart, J. Mol. Mod., 1:32, 19 (2013)
 http://www.springerlink.com/openurl.asp?genre=article&id=doi:10.1007/s00894-012-1667-x

           Empirical Formula: C5 H8 O2 Ni6  =    21 atoms



      MOLECULAR POINT GROUP   :   C1  


 SINGLET STATE CALCULATION


      RHF CALCULATION, NO. OF DOUBLY OCCUPIED LEVELS = 50


 -------------------------------------------------------------------------------
CHARGE=0 SINGLET PM7




     NO PARAMETERS MARKED FOR OPTIMIZATION, SO 1SCF WAS USED  
     SCF FIELD WAS ACHIEVED                                   


                              PM7 CALCULATION
                                                       MOPAC2016 (Version: 17.240L)
                                                       Sat Sep 12 15:37:06 2020




          FINAL HEAT OF FORMATION =        565.29881 KCAL/MOL =    2365.21021 KJ/MOL


          TOTAL ENERGY            =      -3563.29965 EV
          ELECTRONIC ENERGY       =     -21680.48255 EV  POINT GROUP:     C1  
          CORE-CORE REPULSION     =      18117.18290 EV
          COSMO AREA              =        219.67 SQUARE ANGSTROMS
          COSMO VOLUME            =        255.97 CUBIC ANGSTROMS

          IONIZATION POTENTIAL    =          4.681619 EV
          HOMO LUMO ENERGIES (EV) =         -4.682 -0.719
          NO. OF FILLED LEVELS    =         50
          MOLECULAR WEIGHT        =        452.3770

          MOLECULAR DIMENSIONS (Angstroms)

            Atom       Atom       Distance
            H    21    H    17     7.39309
            H     8   Ni     2     5.74260
            H    19   Ni     3     4.61777


          SCF CALCULATIONS        =          1
 
          WALL-CLOCK TIME         =          0.246 SECONDS
          COMPUTATION TIME        =          1.422 SECONDS




   ATOM   CHEMICAL          X               Y               Z
  NUMBER   SYMBOL      (ANGSTROMS)     (ANGSTROMS)     (ANGSTROMS)
 
     1      Ni          1.25216979     -0.42969469      0.08952828   
     2      Ni          3.29921062      0.25274366      0.84140538   
     3      Ni          1.71819054      1.07666634     -1.81573274   
     4      Ni          2.56685013     -2.54941367     -0.94813941   
     5      Ni          1.11658910     -1.16310220     -2.13419634   
     6      Ni          3.27049067     -0.55577965     -1.52610546   
     7       H         -2.41706124     -1.05596104      0.94058685   
     8       H         -1.62461028     -2.31127521     -0.69102088   
     9       O         -1.08476219      0.37797018     -0.87945295   
    10       C         -1.03400968      1.74701730     -0.87175999   
    11       C         -0.83124392      2.37166803      0.44924259   
    12       C         -0.66521061      1.17662654      1.29227992   
    13       C         -0.57287879     -0.00402080      0.37835133   
    14       C         -1.31698735     -1.23741111      0.89885862   
    15       O         -1.02225090     -2.34874757      0.09169749   
    16       H         -1.12317823      2.32247609     -1.78239051   
    17       H         -1.70678320      2.98964156      0.73892461   
    18       H         -1.25861199      1.08424997      2.18994901   
    19       H         -0.97647805     -1.46755785      1.92823583   
    20       H          0.10281196      2.97246844      0.45905927   
    21       H          2.28983507     -3.22000076      0.38518628   

                             CARTESIAN COORDINATES

   1   Ni        1.252169785    -0.429694690     0.089528284
   2   Ni        3.299210617     0.252743657     0.841405384
   3   Ni        1.718190538     1.076666341    -1.815732744
   4   Ni        2.566850135    -2.549413671    -0.948139406
   5   Ni        1.116589104    -1.163102200    -2.134196342
   6   Ni        3.270490674    -0.555779645    -1.526105461
   7    H       -2.417061243    -1.055961039     0.940586851
   8    H       -1.624610283    -2.311275207    -0.691020876
   9    O       -1.084762187     0.377970183    -0.879452947
  10    C       -1.034009684     1.747017296    -0.871759993
  11    C       -0.831243917     2.371668033     0.449242594
  12    C       -0.665210611     1.176626544     1.292279917
  13    C       -0.572878785    -0.004020802     0.378351334
  14    C       -1.316987353    -1.237411106     0.898858616
  15    O       -1.022250897    -2.348747566     0.091697486
  16    H       -1.123178226     2.322476088    -1.782390513
  17    H       -1.706783203     2.989641562     0.738924614
  18    H       -1.258611986     1.084249974     2.189949008
  19    H       -0.976478045    -1.467557846     1.928235829
  20    H        0.102811958     2.972468443     0.459059274
  21    H        2.289835068    -3.220000764     0.385186283


           Empirical Formula: C5 H8 O2 Ni6  =    21 atoms



      MOLECULAR POINT GROUP   :   C1  


                  EIGENVALUES  
 -35.92483 -30.63216 -29.16370 -26.66076 -25.40616 -21.47348 -19.44949 -18.52864
 -17.23296 -16.05217 -15.20750 -14.53300 -14.05916 -12.93363 -12.38722 -12.25121
 -11.84430 -11.45029 -11.28573 -10.30548  -9.92038  -8.64586  -6.87307  -6.74109
  -6.66975  -6.30932  -6.29754  -6.28690  -6.15815  -6.14652  -6.11119  -6.09792
  -6.07608  -5.92491  -5.91858  -5.88769  -5.87140  -5.86166  -5.85177  -5.84856
  -5.80286  -5.77717  -5.68659  -5.52280  -5.44400  -5.43466  -5.25901  -5.25884
  -5.04473  -4.68162  -0.71914  -0.56983  -0.35742  -0.06374   0.15021   1.70692
   3.08759   3.52540   4.67916   5.05287   5.18704   5.43580   5.54603   5.88394
   6.02722   6.18210   6.42882   6.54191   6.83848   7.15721   7.54225   7.99793
  14.73883  17.41600  17.93600  18.64400  19.42629  21.60480  27.48863  29.16829
  30.04209  31.75460  35.17752  36.79665  37.37798  37.73971  38.52724  38.61124
  39.63286  40.56970


              NET ATOMIC CHARGES AND DIPOLE CONTRIBUTIONS

  ATOM NO.   TYPE          CHARGE      No. of ELECS.   s-Pop       p-Pop       d-Pop       
    1         Ni           0.834925        9.1651     0.78578     0.39284     7.98646
    2         Ni          -0.536912       10.5369     1.15272     0.06098     9.32321
    3         Ni          -0.290056       10.2901     1.17837     0.11929     8.99240
    4         Ni           0.208497        9.7915     1.04880     0.25110     8.49160
    5         Ni          -0.075626       10.0756     0.87971     0.20648     8.98944
    6         Ni           0.380746        9.6193     0.70537     0.30406     8.60982
    7          H           0.106755        0.8932     0.89325
    8          H           0.298623        0.7014     0.70138
    9          O          -0.185085        6.1851     1.88929     4.29579
   10          C           0.033980        3.9660     1.15422     2.81180
   11          C          -0.229528        4.2295     1.04953     3.18000
   12          C          -0.529932        4.5299     1.07541     3.45452
   13          C           0.083916        3.9161     1.12219     2.79389
   14          C          -0.013307        4.0133     1.09100     2.92231
   15          O          -0.536151        6.5362     1.85776     4.67839
   16          H           0.137582        0.8624     0.86242
   17          H           0.124157        0.8758     0.87584
   18          H           0.134874        0.8651     0.86513
   19          H           0.141743        0.8583     0.85826
   20          H           0.126240        0.8738     0.87376
   21          H          -0.215441        1.2154     1.21544
 DIPOLE           X         Y         Z       TOTAL
 POINT-CHG.    -0.960    -2.258    -4.167     4.836
 HYBRID         1.367     0.087    -1.783     2.248
 SUM            0.406    -2.170    -5.950     6.347


          ATOMIC ORBITAL ELECTRON POPULATIONS

     Atom    s        px        py        pz      x^2-y^2     xz        z^2       yz        xy
    1 Ni   0.78578   0.20119   0.07941   0.11223   1.96406   0.35127   1.98452   1.73829   1.94832
    2 Ni   1.15272   0.01952   0.01484   0.02663   1.99459   1.71559   1.79743   1.86492   1.95068
    3 Ni   1.17837   0.02747   0.05745   0.03437   1.52587   1.99707   1.83148   1.82577   1.81222
    4 Ni   1.04880   0.02231   0.10365   0.12514   1.87040   1.99289   1.80642   0.86277   1.95912
    5 Ni   0.87971   0.06282   0.10655   0.03710   1.45293   1.81838   1.90282   1.94231   1.87300
    6 Ni   0.70537   0.07933   0.13980   0.08493   1.44844   1.83361   1.98391   1.99203   1.35184
    7  H   0.89325
    8  H   0.70138
    9  O   1.88929   1.53118   1.26653   1.49809
   10  C   1.15422   0.95266   0.84244   1.01670
   11  C   1.04953   1.11434   1.07410   0.99155
   12  C   1.07541   1.41453   0.93416   1.10583
   13  C   1.12219   0.99728   0.95355   0.84306
   14  C   1.09100   1.04767   0.87970   0.99494
   15  O   1.85776   1.67874   1.53336   1.46630
   16  H   0.86242
   17  H   0.87584
   18  H   0.86513
   19  H   0.85826
   20  H   0.87376
   21  H   1.21544

 **********************
 *                    *
 * JOB ENDED NORMALLY *
 *                    *
 **********************



 TOTAL JOB TIME:             0.25 SECONDS

 == MOPAC DONE ==
