 *******************************************************************************
 ** Site#: 33848        For non-commercial use only    Version 17.240L 64BITS **
 *******************************************************************************
 ** Cite this program as: MOPAC2016, Version: 17.240L, James J. P. Stewart,   **
 ** Stewart Computational Chemistry, web-site: HTTP://OpenMOPAC.net.          **
 *******************************************************************************
 **                                                                           **
 **                                MOPAC2016                                  **
 **                                                                           **
 *******************************************************************************

                              PM7 CALCULATION RESULTS


 *******************************************************************************
 *  CALCULATION DONE:                                Sat Sep 12 15:37:06 2020  *
 *  PM7        - The PM7 Hamiltonian to be used
 *  SINGLET    - SPIN STATE DEFINED AS A SINGLET
 *
 *
 *
 *                 CHARGE ON SYSTEM = 0
 *
 *
 *
 *  T=         - A TIME OF 172800.0 SECONDS REQUESTED
 *  DUMP=N     - RESTART FILE WRITTEN EVERY  7200.000 SECONDS
 *******************************************************************************
CHARGE=0 SINGLET PM7


   ATOM   CHEMICAL          X               Y               Z
  NUMBER   SYMBOL      (ANGSTROMS)     (ANGSTROMS)     (ANGSTROMS)
 
     1      Ni          0.89315155     -0.63549320     -0.15600155   
     2      Ni          2.58409444     -1.27581684      1.24117961   
     3      Ni          1.70419380      1.65485459      0.30533991   
     4      Ni          2.64146736     -1.11456067     -2.15905757   
     5      Ni          1.43489615      0.85980120     -1.87990044   
     6      Ni          3.27436679      0.28081747     -0.59186596   
     7       H         -2.84925856     -0.63363053     -0.71928803   
     8       H         -1.89815112     -1.70382071     -2.54116691   
     9       O         -0.94168369      1.18766999     -0.28628362   
    10       C         -0.19690723      1.80289007      0.74732261   
    11       C         -0.54942537      1.03251711      1.98043660   
    12       C         -1.15898772     -0.11283808      1.55666576   
    13       C         -0.90089568     -0.16046246      0.11506807   
    14       C         -1.81452829     -1.04606291     -0.72319914   
    15       O         -1.32090242     -1.07468895     -2.03833107   
    16       H         -0.50706023      2.86390811      0.85200976   
    17       H         -0.85595482      1.49013793      2.91481508   
    18       H         -1.88000383     -0.69887737      2.11319206   
    19       H         -1.80172027     -2.07316462     -0.30640832   
    20       H          2.06472333      1.89263423      1.76150916   
    21       H          2.08396867     -2.52635616     -2.14573266   
 


          CARTESIAN COORDINATES 

    NO.       ATOM         X         Y         Z

     1        Ni        0.8932   -0.6355   -0.1560
     2        Ni        2.5841   -1.2758    1.2412
     3        Ni        1.7042    1.6549    0.3053
     4        Ni        2.6415   -1.1146   -2.1591
     5        Ni        1.4349    0.8598   -1.8799
     6        Ni        3.2744    0.2808   -0.5919
     7         H       -2.8493   -0.6336   -0.7193
     8         H       -1.8982   -1.7038   -2.5412
     9         O       -0.9417    1.1877   -0.2863
    10         C       -0.1969    1.8029    0.7473
    11         C       -0.5494    1.0325    1.9804
    12         C       -1.1590   -0.1128    1.5567
    13         C       -0.9009   -0.1605    0.1151
    14         C       -1.8145   -1.0461   -0.7232
    15         O       -1.3209   -1.0747   -2.0383
    16         H       -0.5071    2.8639    0.8520
    17         H       -0.8560    1.4901    2.9148
    18         H       -1.8800   -0.6989    2.1132
    19         H       -1.8017   -2.0732   -0.3064
    20         H        2.0647    1.8926    1.7615
    21         H        2.0840   -2.5264   -2.1457

 General Reference for PM7:
 "Optimization of Parameters for Semiempirical Methods VI: More Modifications to the 
 NDDO Approximations and Re-optimization of Parameters", J. J. P. Stewart, J. Mol. Mod., 1:32, 19 (2013)
 http://www.springerlink.com/openurl.asp?genre=article&id=doi:10.1007/s00894-012-1667-x

           Empirical Formula: C5 H8 O2 Ni6  =    21 atoms



      MOLECULAR POINT GROUP   :   C1  


 SINGLET STATE CALCULATION


      RHF CALCULATION, NO. OF DOUBLY OCCUPIED LEVELS = 50


 -------------------------------------------------------------------------------
CHARGE=0 SINGLET PM7




     NO PARAMETERS MARKED FOR OPTIMIZATION, SO 1SCF WAS USED  
     SCF FIELD WAS ACHIEVED                                   


                              PM7 CALCULATION
                                                       MOPAC2016 (Version: 17.240L)
                                                       Sat Sep 12 15:37:06 2020




          FINAL HEAT OF FORMATION =        575.51762 KCAL/MOL =    2407.96574 KJ/MOL


          TOTAL ENERGY            =      -3562.85472 EV
          ELECTRONIC ENERGY       =     -22004.07638 EV  POINT GROUP:     C1  
          CORE-CORE REPULSION     =      18441.22165 EV
          COSMO AREA              =        215.25 SQUARE ANGSTROMS
          COSMO VOLUME            =        247.79 CUBIC ANGSTROMS

          IONIZATION POTENTIAL    =          4.869206 EV
          HOMO LUMO ENERGIES (EV) =         -4.869 -0.544
          NO. OF FILLED LEVELS    =         50
          MOLECULAR WEIGHT        =        452.3770

          MOLECULAR DIMENSIONS (Angstroms)

            Atom       Atom       Distance
            H    21    H    17     7.09821
            H     7    H    20     5.94402
           Ni     2   Ni     5     3.71411


          SCF CALCULATIONS        =          1
 
          WALL-CLOCK TIME         =          0.160 SECONDS
          COMPUTATION TIME        =          0.859 SECONDS




   ATOM   CHEMICAL          X               Y               Z
  NUMBER   SYMBOL      (ANGSTROMS)     (ANGSTROMS)     (ANGSTROMS)
 
     1      Ni          0.89315155     -0.63549320     -0.15600155   
     2      Ni          2.58409444     -1.27581684      1.24117961   
     3      Ni          1.70419380      1.65485459      0.30533991   
     4      Ni          2.64146736     -1.11456067     -2.15905757   
     5      Ni          1.43489615      0.85980120     -1.87990044   
     6      Ni          3.27436679      0.28081747     -0.59186596   
     7       H         -2.84925856     -0.63363053     -0.71928803   
     8       H         -1.89815112     -1.70382071     -2.54116691   
     9       O         -0.94168369      1.18766999     -0.28628362   
    10       C         -0.19690723      1.80289007      0.74732261   
    11       C         -0.54942537      1.03251711      1.98043660   
    12       C         -1.15898772     -0.11283808      1.55666576   
    13       C         -0.90089568     -0.16046246      0.11506807   
    14       C         -1.81452829     -1.04606291     -0.72319914   
    15       O         -1.32090242     -1.07468895     -2.03833107   
    16       H         -0.50706023      2.86390811      0.85200976   
    17       H         -0.85595482      1.49013793      2.91481508   
    18       H         -1.88000383     -0.69887737      2.11319206   
    19       H         -1.80172027     -2.07316462     -0.30640832   
    20       H          2.06472333      1.89263423      1.76150916   
    21       H          2.08396867     -2.52635616     -2.14573266   

                             CARTESIAN COORDINATES

   1   Ni        0.893151553    -0.635493201    -0.156001555
   2   Ni        2.584094445    -1.275816836     1.241179614
   3   Ni        1.704193804     1.654854591     0.305339906
   4   Ni        2.641467361    -1.114560675    -2.159057572
   5   Ni        1.434896152     0.859801201    -1.879900435
   6   Ni        3.274366787     0.280817472    -0.591865963
   7    H       -2.849258558    -0.633630532    -0.719288027
   8    H       -1.898151118    -1.703820709    -2.541166910
   9    O       -0.941683688     1.187669988    -0.286283625
  10    C       -0.196907234     1.802890070     0.747322606
  11    C       -0.549425371     1.032517114     1.980436601
  12    C       -1.158987723    -0.112838085     1.556665764
  13    C       -0.900895677    -0.160462455     0.115068069
  14    C       -1.814528292    -1.046062914    -0.723199138
  15    O       -1.320902420    -1.074688946    -2.038331072
  16    H       -0.507060225     2.863908108     0.852009764
  17    H       -0.855954824     1.490137931     2.914815079
  18    H       -1.880003830    -0.698877371     2.113192061
  19    H       -1.801720275    -2.073164616    -0.306408320
  20    H        2.064723326     1.892634232     1.761509164
  21    H        2.083968673    -2.526356162    -2.145732656


           Empirical Formula: C5 H8 O2 Ni6  =    21 atoms



      MOLECULAR POINT GROUP   :   C1  


                  EIGENVALUES  
 -37.04516 -29.74059 -28.98585 -25.61603 -25.11458 -21.66893 -19.47129 -17.99734
 -16.61480 -15.66576 -15.23860 -14.97342 -13.12298 -12.80290 -12.23524 -11.92660
 -11.29194 -10.66451 -10.26348 -10.00260  -9.10936  -8.60302  -6.94805  -6.74011
  -6.67046  -6.54147  -6.39732  -6.34714  -6.18221  -6.15960  -6.12351  -6.04146
  -6.03888  -6.01398  -5.98033  -5.96290  -5.90258  -5.88120  -5.85419  -5.80224
  -5.78364  -5.76973  -5.71243  -5.69270  -5.67814  -5.63881  -5.45474  -5.45050
  -5.02189  -4.86921  -0.54394  -0.52241  -0.33742  -0.07576   1.54749   2.04040
   2.54288   3.52736   4.48053   4.89278   5.42764   5.61729   5.90498   5.97437
   6.04124   6.37168   6.53893   6.72627   6.88144   6.98424   7.50169   9.25424
  14.95984  17.68124  18.29557  19.36512  20.03300  22.39409  27.54192  29.33673
  30.31519  31.91216  35.09896  36.66503  37.22265  37.68030  38.46075  38.76775
  39.54458  40.66061


              NET ATOMIC CHARGES AND DIPOLE CONTRIBUTIONS

  ATOM NO.   TYPE          CHARGE      No. of ELECS.   s-Pop       p-Pop       d-Pop       
    1         Ni           0.761564        9.2384     0.83569     0.38802     8.01473
    2         Ni          -0.504872       10.5049     1.18077     0.06071     9.26340
    3         Ni           0.335101        9.6649     0.92810     0.37776     8.35904
    4         Ni          -0.163642       10.1636     1.00350     0.21131     8.94883
    5         Ni          -0.096268       10.0963     0.89683     0.15301     9.04643
    6         Ni           0.275818        9.7242     0.75614     0.24112     8.72692
    7          H           0.107772        0.8922     0.89223
    8          H           0.275874        0.7241     0.72413
    9          O          -0.457400        6.4574     1.88065     4.57675
   10          C           0.022189        3.9778     1.12872     2.84910
   11          C          -0.162218        4.1622     1.11657     3.04564
   12          C          -0.275693        4.2757     1.09320     3.18249
   13          C           0.086427        3.9136     1.07811     2.83547
   14          C          -0.005517        4.0055     1.08623     2.91929
   15          O          -0.510309        6.5103     1.86321     4.64710
   16          H           0.109489        0.8905     0.89051
   17          H           0.135181        0.8648     0.86482
   18          H           0.144663        0.8553     0.85534
   19          H           0.099965        0.9000     0.90004
   20          H          -0.157910        1.1579     1.15791
   21          H          -0.020214        1.0202     1.02021
 DIPOLE           X         Y         Z       TOTAL
 POINT-CHG.    -0.488     1.023    -0.345     1.185
 HYBRID         1.723     0.232    -1.756     2.472
 SUM            1.235     1.255    -2.101     2.742


          ATOMIC ORBITAL ELECTRON POPULATIONS

     Atom    s        px        py        pz      x^2-y^2     xz        z^2       yz        xy
    1 Ni   0.83569   0.20115   0.08774   0.09913   0.81069   1.99961   1.36400   1.92480   1.91564
    2 Ni   1.18077   0.01488   0.01888   0.02695   1.93603   1.95399   1.79492   1.61833   1.96014
    3 Ni   0.92810   0.14689   0.07060   0.16028   1.92806   1.91348   1.01915   1.57337   1.92497
    4 Ni   1.00350   0.02173   0.14997   0.03961   1.63699   1.90679   1.83165   1.72869   1.84470
    5 Ni   0.89683   0.05514   0.04112   0.05675   1.98824   1.96955   1.56932   1.89788   1.62145
    6 Ni   0.75614   0.06539   0.07423   0.10150   1.99723   1.11564   1.97391   1.87499   1.76514
    7  H   0.89223
    8  H   0.72413
    9  O   1.88065   1.76201   1.28206   1.53268
   10  C   1.12872   1.05837   0.93803   0.85270
   11  C   1.11657   0.97604   1.02562   1.04399
   12  C   1.09320   1.06612   1.08857   1.02780
   13  C   1.07811   1.12520   0.79933   0.91094
   14  C   1.08623   1.01778   1.06582   0.83568
   15  O   1.86321   1.60875   1.71867   1.31968
   16  H   0.89051
   17  H   0.86482
   18  H   0.85534
   19  H   0.90004
   20  H   1.15791
   21  H   1.02021

 **********************
 *                    *
 * JOB ENDED NORMALLY *
 *                    *
 **********************



 TOTAL JOB TIME:             0.16 SECONDS

 == MOPAC DONE ==
