                  Welcome to Q-Chem
     A Quantum Leap Into The Future Of Chemistry


 Q-Chem 5.2 (devel), Q-Chem, Inc., Pleasanton, CA (2019)

 Yihan Shao,  Zhengting Gan,  E. Epifanovsky,  A. T. B. Gilbert,  M. Wormit,  
 J. Kussmann,  A. W. Lange,  A. Behn,  Jia Deng,  Xintian Feng,  D. Ghosh,  
 M. Goldey,  P. R. Horn,  L. D. Jacobson,  I. Kaliman,  T. Kus,  A. Landau,  
 Jie Liu,  E. I. Proynov,  R. M. Richard,  R. P. Steele,  E. J. Sundstrom,  
 H. L. Woodcock III,  P. M. Zimmerman,  D. Zuev,  B. Albrecht,  E. Alguire,  
 S. A. Baeppler,  D. Barton,  Z. Benda,  Y. A. Bernard,  E. J. Berquist,  
 K. B. Bravaya,  H. Burton,  D. Casanova,  Chun-Min Chang,  Yunqing Chen,  
 A. Chien,  K. D. Closser,  M. P. Coons,  S. Coriani,  S. Dasgupta,  
 A. L. Dempwolff,  M. Diedenhofen,  Hainam Do,  R. G. Edgar,  Po-Tung Fang,  
 S. Faraji,  S. Fatehi,  Qingguo Feng,  K. D. Fenk,  J. Fosso-Tande,  
 J. Gayvert,  Qinghui Ge,  A. Ghysels,  G. Gidofalvi,  J. Gomes,  
 J. Gonthier,  A. Gunina,  D. Hait,  M. W. D. Hanson-Heine,  
 P. H. P. Harbach,  A. W. Hauser,  M. F. Herbst,  J. E. Herr,  
 E. G. Hohenstein,  Z. C. Holden,  Kerwin Hui,  B. C. Huynh,  T.-C. Jagau,  
 Hyunjun Ji,  B. Kaduk,  K. Khistyaev,  Jaehoon Kim,  P. Klunzinger,  K. Koh,  
 D. Kosenkov,  L. Koulias,  T. Kowalczyk,  C. M. Krauter,  A. Kunitsa,  
 Ka Un Lao,  A. Laurent,  K. V. Lawler,  Joonho Lee,  D. Lefrancois,  
 S. Lehtola,  D. S. Levine,  Yi-Pei Li,  You-Sheng Lin,  Fenglai Liu,  
 E. Livshits,  A. Luenser,  P. Manohar,  E. Mansoor,  S. F. Manzer,  
 Shan-Ping Mao,  Yuezhi Mao,  N. Mardirossian,  A. V. Marenich,  
 T. Markovich,  L. A. Martinez-Martinez,  S. A. Maurer,  N. J. Mayhall,  
 S. C. McKenzie,  J.-M. Mewes,  P. Morgante,  A. F. Morrison,  
 J. W. Mullinax,  K. Nanda,  T. S. Nguyen-Beck,  R. Olivares-Amaya,  
 J. A. Parkhill,  Zheng Pei,  T. M. Perrine,  F. Plasser,  P. Pokhilko,  
 S. Prager,  A. Prociuk,  E. Ramos,  D. R. Rehn,  F. Rob,  M. Scheurer,  
 M. Schneider,  N. Sergueev,  S. M. Sharada,  S. Sharma,  D. W. Small,  
 T. Stauch,  T. Stein,  Yu-Chuan Su,  A. J. W. Thom,  A. Tkatchenko,  
 T. Tsuchimochi,  N. M. Tubman,  L. Vogt,  M. L. Vidal,  O. Vydrov,  
 M. A. Watson,  J. Wenzel,  M. de Wergifosse,  T. A. Wesolowski,  A. White,  
 J. Witte,  A. Yamada,  Jun Yang,  K. Yao,  S. Yeganeh,  S. R. Yost,  
 Zhi-Qiang You,  A. Zech,  Igor Ying Zhang,  Xing Zhang,  Yan Zhao,  
 Ying Zhu,  B. R. Brooks,  G. K. L. Chan,  C. J. Cramer,  M. S. Gordon,  
 W. J. Hehre,  A. Klamt,  M. W. Schmidt,  C. D. Sherrill,  D. G. Truhlar,  
 A. Aspuru-Guzik,  R. Baer,  A. T. Bell,  N. A. Besley,  Jeng-Da Chai,  
 A. E. DePrince, III,  R. A. DiStasio Jr.,  A. Dreuw,  B. D. Dunietz,  
 T. R. Furlani,  Chao-Ping Hsu,  Yousung Jung,  Jing Kong,  D. S. Lambrecht,  
 WanZhen Liang,  C. Ochsenfeld,  V. A. Rassolov,  L. V. Slipchenko,  
 J. E. Subotnik,  T. Van Voorhis,  J. M. Herbert,  A. I. Krylov,  
 P. M. W. Gill,  M. Head-Gordon

 Contributors to earlier versions of Q-Chem not listed above: 
 R. D. Adamson,  B. Austin,  J. Baker,  G. J. O. Beran,  K. Brandhorst,  
 S. T. Brown,  E. F. C. Byrd,  A. K. Chakraborty,  C.-L. Cheng,  
 Siu Hung Chien,  D. M. Chipman,  D. L. Crittenden,  H. Dachsel,  
 R. J. Doerksen,  A. D. Dutoi,  L. Fusti-Molnar,  W. A. Goddard III,  
 A. Golubeva-Zadorozhnaya,  S. R. Gwaltney,  G. Hawkins,  A. Heyden,  
 S. Hirata,  G. Kedziora,  F. J. Keil,  C. Kelley,  Jihan Kim,  R. A. King,  
 R. Z. Khaliullin,  P. P. Korambath,  W. Kurlancheek,  A. M. Lee,  M. S. Lee,  
 S. V. Levchenko,  Ching Yeh Lin,  D. Liotard,  R. C. Lochan,  I. Lotan,  
 P. E. Maslen,  N. Nair,  D. P. O'Neill,  D. Neuhauser,  E. Neuscamman,  
 C. M. Oana,  R. Olson,  B. Peters,  R. Peverati,  P. A. Pieniazek,  
 Y. M. Rhee,  J. Ritchie,  M. A. Rohrdanz,  E. Rosta,  N. J. Russ,  
 H. F. Schaefer III,  N. E. Schultz,  N. Shenvi,  A. C. Simmonett,  A. Sodt,  
 D. Stuck,  K. S. Thanthiriwatte,  V. Vanovschi,  Tao Wang,  A. Warshel,  
 C. F. Williams,  Q. Wu,  X. Xu,  W. Zhang

 Please cite Q-Chem as follows:
 Y. Shao et al., Mol. Phys. 113, 184-215 (2015)
 DOI: 10.1080/00268976.2014.952696

 Q-Chem 5.2.1 for Intel X86 EM64T Linux

 Parts of Q-Chem use Armadillo 8.300.2 (Tropical Shenanigans).
 http://arma.sourceforge.net/

 Q-Chem begins on Mon Mar  9 18:25:36 2020  

Host: node018
0

     Scratch files written to /tmp/ypli/105345.h81/qchem14423//
NAlpha2: 26
NElect   26
Mult     1

Checking the input file for inconsistencies... 	...done.

--------------------------------------------------------------
User input:
--------------------------------------------------------------
$rem
jobtype = freq
exchange = b3lyp
basis = 6-31g*
$end

$molecule
0 1
C     -6.44640786    0.80536062    0.22516943
C     -5.18611105    1.92910960   -0.06621446
H     -7.00635066    1.70730380   -0.03146689
H     -6.91461745    0.31794858    1.08313722
H     -6.44673821    0.12189012   -0.62675042
O     -4.46293540    0.97139976    0.17777610
H     -5.60395653    2.56749621    0.72852423
H     -5.46231057    2.20985531   -1.09511558
H     -5.41792526    1.07430012    0.47575773
$end
--------------------------------------------------------------
 ----------------------------------------------------------------
             Standard Nuclear Orientation (Angstroms)
    I     Atom           X                Y                Z
 ----------------------------------------------------------------
    1      C       1.0592229220    -0.1454326438     0.0110280454
    2      C      -0.4837692346     0.5994104655    -0.0101459459
    3      H       1.3225907355     0.9143853959     0.0289934956
    4      H       1.7142476958    -0.6715682020    -0.6868425483
    5      H       1.1789870025    -0.5673403490     1.0113029665
    6      O      -0.8888555030    -0.5562594693    -0.0027521236
    7      H      -0.1955982023     1.1151689017    -0.9400344263
    8      H      -0.3831716742     1.1927703081     0.9126465938
    9      H       0.0210663424    -0.2572072302    -0.3093416900
 ----------------------------------------------------------------
 Molecular Point Group                 C1    NOp =  1
 Largest Abelian Subgroup              C1    NOp =  1
 Nuclear Repulsion Energy =          89.83145444 hartrees
 There are       13 alpha and       13 beta electrons
 Requested basis set is 6-31G(d)
 There are 24 shells and 57 basis functions

 Total QAlloc Memory Limit   2000 MB
 Mega-Array Size       188 MB
 MEM_STATIC part       192 MB

                       Distance Matrix (Angstroms)
             C (  1)   C (  2)   H (  3)   H (  4)   H (  5)   O (  6)
   C (  2)  1.713495
   H (  3)  1.092199  1.834033
   H (  4)  1.092199  2.627657  1.783554
   H (  5)  1.092199  2.273637  1.783554  1.783554
   O (  6)  1.990974  1.224632  2.655993  2.693960  2.303129
   H (  7)  2.016981  1.101700  1.812244  2.627555  2.920281  2.037836
   H (  8)  2.164303  1.101700  1.941125  3.230061  2.355433  2.037836
   H (  9)  1.092199  1.038350  1.783554  1.783554  1.783554  1.005677
             H (  7)   H (  8)
   H (  8)  1.863768
   H (  9)  1.525822  1.938839
 
 A cutoff of  1.0D-11 yielded    299 shell pairs
 There are      1733 function pairs
 Smallest overlap matrix eigenvalue = 5.10E-03
 Guess from superposition of atomic densities
 Warning:  Energy on first SCF cycle will be non-variational
 SAD guess density has 26.000000 electrons

 -----------------------------------------------------------------------
  General SCF calculation program by
  Eric Jon Sundstrom, Paul Horn, Yuezhi Mao, Dmitri Zuev, Alec White,
  David Stuck, Shaama M.S., Shane Yost, Joonho Lee, David Small,
  Daniel Levine, Susi Lehtola, Hugh Burton, Evgeny Epifanovsky,
  Bang C. Huynh
 -----------------------------------------------------------------------
 Exchange:     0.2000 Hartree-Fock + 0.0800 Slater + 0.7200 B88
 Correlation:  0.1900 VWN1RPA + 0.8100 LYP
 Using SG-1 standard quadrature grid
 using 2 threads for integral computing
 -------------------------------------------------------
 OpenMP Integral computing Module                
 Release: version 2.0, May 2017, Q-Chem Inc. Pleasanton 
 -------------------------------------------------------
 A restricted SCF calculation will be
 performed using DIIS
 SCF converges when DIIS error is below 1.0e-08
 ---------------------------------------
  Cycle       Energy         DIIS error
 ---------------------------------------
    1    -155.9776967173      1.33e-01  
    2    -154.5388000668      1.99e-02  
    3    -154.2955305583      3.37e-02  
    4    -154.6678835193      4.36e-03  
    5    -154.6736349568      1.62e-03  
    6    -154.6745591252      4.32e-04  
    7    -154.6746286935      1.10e-04  
    8    -154.6746334173      1.13e-05  
    9    -154.6746334784      3.19e-06  
   10    -154.6746334824      8.26e-07  
   11    -154.6746334827      1.58e-07  
   12    -154.6746334827      2.52e-08  
   13    -154.6746334827      5.69e-09  Convergence criterion met
 ---------------------------------------
 SCF time:   CPU 5.53s  wall 4.00s 
 SCF   energy in the final basis set =     -154.6746334827
 Total energy in the final basis set =     -154.6746334827
 
 --------------------------------------------------------------
 
                    Orbital Energies (a.u.)
 --------------------------------------------------------------
 
 Alpha MOs
 -- Occupied --
-19.0801 -10.3117 -10.1697  -1.1676  -0.7705  -0.6384  -0.5733  -0.5084
 -0.4344  -0.4103  -0.3959  -0.2662  -0.1944
 -- Virtual --
  0.0011   0.0685   0.1348   0.1502   0.1582   0.1759   0.2684   0.3575
  0.4319   0.5254   0.5489   0.6183   0.6520   0.6797   0.7933   0.8225
  0.8621   0.8776   0.9216   0.9236   0.9503   1.0243   1.0867   1.1987
  1.2373   1.3870   1.5125   1.6653   1.7826   1.8131   1.8916   1.9276
  2.1539   2.2062   2.2530   2.2891   2.4539   2.5470   2.6360   2.8178
  3.0169   3.9186   4.1401   4.2836
 --------------------------------------------------------------
 
          Ground-State Mulliken Net Atomic Charges

     Atom                 Charge (a.u.)
  ----------------------------------------
      1 C                    -0.663505
      2 C                    -0.070943
      3 H                     0.126753
      4 H                     0.202879
      5 H                     0.194393
      6 O                    -0.473993
      7 H                     0.138899
      8 H                     0.149959
      9 H                     0.395558
  ----------------------------------------
  Sum of atomic charges =     0.000000

 -----------------------------------------------------------------
                    Cartesian Multipole Moments
 -----------------------------------------------------------------
    Charge (ESU x 10^10)
                 0.0000
    Dipole Moment (Debye)
         X       1.6270      Y       1.7722      Z      -0.0812
       Tot       2.4071
    Quadrupole Moments (Debye-Ang)
        XX     -22.0983     XY      -2.8007     YY     -20.2663
        XZ      -0.5533     YZ       0.2427     ZZ     -19.1082
    Octopole Moments (Debye-Ang^2)
       XXX      -2.4795    XXY      -0.5211    XYY       0.0728
       YYY      -1.9406    XXZ      -0.7978    XYZ       0.0494
       YYZ       0.2764    XZZ      -0.4791    YZZ      -0.8039
       ZZZ       0.6722
    Hexadecapole Moments (Debye-Ang^3)
      XXXX    -120.4829   XXXY      -5.0537   XXYY     -29.2887
      XYYY       0.7317   YYYY     -61.5553   XXXZ      -3.0495
      XXYZ       0.6535   XYYZ      -0.5869   YYYZ       0.6314
      XXZZ     -24.1280   XYZZ      -0.8564   YYZZ     -15.1684
      XZZZ      -0.1116   YZZZ       0.0911   ZZZZ     -31.6276
 -----------------------------------------------------------------
 Calculating MO derivatives via CPSCF
    1     0    30    0.0565208  
    2     0    30    0.0060158  
    3     0    30    0.0003537  
    4    16    14    0.0000181  
    5    30     0    0.0000007  Converged
 Time for AOints: 0.5 s (CPU) 1.4 s (wall)
 ------------------------------------------------------------------------------
                     AOints        : Timing summary (seconds)
 ------------------------------------------------------------------------------
     job step          cpu (% of tot)      sys (% of tot)     wall (% of tot)
 ------------------------------------------------------------------------------
  AOints            0.4961E+00 ( 4.9)   0.4000E-05 ( 9.5)   0.1371E+01 (13.9)
 ------------------------------------------------------------------------------
   Grand Totals     0.1013E+02          0.4200E-04          0.9831E+01
 ------------------------------------------------------------------------------
 Polarizability Matrix (a.u.)
            1           2           3
    1 -29.9800701   1.7050535   1.3797994
    2   1.7050535 -28.8852030   0.1057996
    3   1.3797994   0.1057996 -24.2073659
 Calculating analytic Hessian of the SCF energy
 
 Direct stationary perturbation theory relativistic correction:
 
 rels  =       0.047281409609
 relv  =      -0.199876548853
 rel2e =       0.073746373996
 E_rel =      -0.078848765248
 
 Hessian of the SCF Energy
            1           2           3           4           5           6
    1   0.6820612   0.0284082   0.0319279   0.0172084   0.0226893   0.0047684
    2   0.0284082   0.4154508  -0.0390218  -0.0681457  -0.0449808   0.0066106
    3   0.0319279  -0.0390218   0.5078513  -0.0796523  -0.0048144  -0.0641115
    4   0.0172084  -0.0681457  -0.0796523   0.1392171   0.0231690  -0.0889426
    5   0.0226893  -0.0449808  -0.0048144   0.0231690   1.0492705   0.1302920
    6   0.0047684   0.0066106  -0.0641115  -0.0889426   0.1302920   0.5421627
    7  -0.0383401  -0.0823111  -0.0120522  -0.0475543  -0.0333121  -0.0030636
    8  -0.0583086  -0.2710823  -0.0063122  -0.0000305  -0.0070407  -0.0014496
    9  -0.0031240  -0.0029823  -0.0414059  -0.0030612  -0.0080566   0.0051562
   10  -0.1409940   0.1113147   0.1297184   0.0365521   0.0016182   0.0060581
   11   0.0873821  -0.0960374  -0.0863404  -0.0015287  -0.0083203  -0.0012458
   12   0.1031778  -0.0823500  -0.1656435   0.0114871   0.0050079   0.0031669
   13  -0.0487582   0.0091430  -0.0187641  -0.0042237   0.0111553  -0.0215830
   14   0.0145538  -0.0881034   0.0931771   0.0009661  -0.0071620   0.0082580
   15  -0.0255854   0.1000293  -0.2882086   0.0072356   0.0016256   0.0004608
   16  -0.2008906  -0.1165566  -0.0153558  -0.1945791  -0.3501897  -0.0270426
   17  -0.1016365   0.0799331   0.0454233  -0.1582281  -0.6164563  -0.0107348
   18   0.0166423   0.0364707   0.0736062   0.0497883   0.0310549  -0.0555765
   19  -0.0086541   0.0238632  -0.0198660  -0.0401717  -0.0350245   0.0492762
   20   0.0164044  -0.0114808   0.0083183  -0.0348033  -0.0810886   0.0684246
   21  -0.0077373   0.0093868   0.0020150   0.0431625   0.0634521  -0.2417148
   22  -0.0115107   0.0096325   0.0167348  -0.0516516  -0.0050396  -0.0148073
   23   0.0122223  -0.0041960  -0.0079593  -0.0128230  -0.1075201  -0.0933277
   24   0.0015556   0.0008735  -0.0002414  -0.0033820  -0.0926360  -0.2399610
   25  -0.2501218   0.0846519  -0.0326907   0.1452027   0.3649342   0.0953364
   26  -0.0217151   0.0204967  -0.0024707   0.2514242  -0.1767017  -0.1068274
   27  -0.1216252  -0.0290169  -0.0238616   0.0633647  -0.1259255   0.0504172
            7           8           9          10          11          12
    1  -0.0383401  -0.0583086  -0.0031240  -0.1409940   0.0873821   0.1031778
    2  -0.0823111  -0.2710823  -0.0029823   0.1113147  -0.0960374  -0.0823500
    3  -0.0120522  -0.0063122  -0.0414059   0.1297184  -0.0863404  -0.1656435
    4  -0.0475543  -0.0000305  -0.0030612   0.0365521  -0.0015287   0.0114871
    5  -0.0333121  -0.0070407  -0.0080566   0.0016182  -0.0083203   0.0050079
    6  -0.0030636  -0.0014496   0.0051562   0.0060581  -0.0012458   0.0031669
    7   0.0810947   0.0817802   0.0049747   0.0109116   0.0193817   0.0015950
    8   0.0817802   0.2995408   0.0082465  -0.0077259  -0.0113251  -0.0000275
    9   0.0049747   0.0082465   0.0388013  -0.0125510  -0.0211689  -0.0020800
   10   0.0109116  -0.0077259  -0.0125510   0.1242116  -0.0907587  -0.1226425
   11   0.0193817  -0.0113251  -0.0211689  -0.0907587   0.1073021   0.0983226
   12   0.0015950  -0.0000275  -0.0020800  -0.1226425   0.0983226   0.1788640
   13   0.0002809  -0.0047900   0.0161334   0.0008397  -0.0070580   0.0143772
   14   0.0041722  -0.0095677   0.0270868  -0.0015147   0.0076772  -0.0161192
   15   0.0004908  -0.0023961   0.0034679  -0.0030643   0.0082656  -0.0168847
   16  -0.0341417  -0.0169688  -0.0080206   0.0015813  -0.0045823   0.0031666
   17   0.0223048   0.0023124   0.0003109  -0.0287439  -0.0033338  -0.0099133
   18   0.0094703  -0.0001009   0.0023032  -0.0120207  -0.0015674  -0.0021018
   19  -0.0022208   0.0030928  -0.0045199  -0.0006955   0.0006056   0.0005034
   20   0.0017718   0.0005511   0.0011088   0.0013538  -0.0006211   0.0001943
   21  -0.0026045   0.0000856  -0.0022254  -0.0018508   0.0006448  -0.0008908
   22  -0.0025384   0.0023887   0.0049863  -0.0012264   0.0024763  -0.0007205
   23   0.0007908   0.0003774  -0.0005092   0.0014150  -0.0000471   0.0009102
   24   0.0013677   0.0006937  -0.0008110   0.0000216   0.0010727   0.0008087
   25   0.0325081   0.0005620   0.0051822  -0.0311805  -0.0059179  -0.0109441
   26  -0.0145782  -0.0037659  -0.0040361   0.0130414   0.0047053   0.0039750
   27  -0.0001782   0.0012605  -0.0032064   0.0163313   0.0020166   0.0047612
           13          14          15          16          17          18
    1  -0.0487582   0.0145538  -0.0255854  -0.2008906  -0.1016365   0.0166423
    2   0.0091430  -0.0881034   0.1000293  -0.1165566   0.0799331   0.0364707
    3  -0.0187641   0.0931771  -0.2882086  -0.0153558   0.0454233   0.0736062
    4  -0.0042237   0.0009661   0.0072356  -0.1945791  -0.1582281   0.0497883
    5   0.0111553  -0.0071620   0.0016256  -0.3501897  -0.6164563   0.0310549
    6  -0.0215830   0.0082580   0.0004608  -0.0270426  -0.0107348  -0.0555765
    7   0.0002809   0.0041722   0.0004908  -0.0341417   0.0223048   0.0094703
    8  -0.0047900  -0.0095677  -0.0023961  -0.0169688   0.0023124  -0.0001009
    9   0.0161334   0.0270868   0.0034679  -0.0080206   0.0003109   0.0023032
   10   0.0008397  -0.0015147  -0.0030643   0.0015813  -0.0287439  -0.0120207
   11  -0.0070580   0.0076772   0.0082656  -0.0045823  -0.0033338  -0.0015674
   12   0.0143772  -0.0161192  -0.0168847   0.0031666  -0.0099133  -0.0021018
   13   0.0514235  -0.0169676   0.0193934   0.0038238  -0.0027538   0.0043156
   14  -0.0169676   0.0952961  -0.1056682  -0.0052901   0.0019184  -0.0014621
   15   0.0193934  -0.1056682   0.3030246   0.0011838  -0.0054598   0.0022595
   16   0.0038238  -0.0052901   0.0011838   0.5767699   0.5143075  -0.1018017
   17  -0.0027538   0.0019184  -0.0054598   0.5143075   0.6034973  -0.0681053
   18   0.0043156  -0.0014621   0.0022595  -0.1018017  -0.0681053  -0.0562251
   19  -0.0048005   0.0040305  -0.0011309   0.0071482  -0.0231135   0.0143807
   20   0.0011755  -0.0004462   0.0003612  -0.0025204  -0.0271941   0.0254971
   21  -0.0009045  -0.0008150   0.0006841   0.0051434   0.0117624   0.0206507
   22   0.0014836  -0.0006219  -0.0002097   0.0228179  -0.0103038  -0.0168165
   23  -0.0013263  -0.0006067  -0.0004451  -0.0081265  -0.0368237  -0.0275679
   24  -0.0013607  -0.0000928   0.0011050  -0.0038107  -0.0130199   0.0166432
   25  -0.0000691   0.0006716   0.0016867  -0.1825298  -0.2118328   0.0360419
   26   0.0114219   0.0009941   0.0036876  -0.0100731  -0.0038532   0.0057809
   27  -0.0116075  -0.0043645  -0.0059087   0.1465377   0.0497366  -0.0015594
           19          20          21          22          23          24
    1  -0.0086541   0.0164044  -0.0077373  -0.0115107   0.0122223   0.0015556
    2   0.0238632  -0.0114808   0.0093868   0.0096325  -0.0041960   0.0008735
    3  -0.0198660   0.0083183   0.0020150   0.0167348  -0.0079593  -0.0002414
    4  -0.0401717  -0.0348033   0.0431625  -0.0516516  -0.0128230  -0.0033820
    5  -0.0350245  -0.0810886   0.0634521  -0.0050396  -0.1075201  -0.0926360
    6   0.0492762   0.0684246  -0.2417148  -0.0148073  -0.0933277  -0.2399610
    7  -0.0022208   0.0017718  -0.0026045  -0.0025384   0.0007908   0.0013677
    8   0.0030928   0.0005511   0.0000856   0.0023887   0.0003774   0.0006937
    9  -0.0045199   0.0011088  -0.0022254   0.0049863  -0.0005092  -0.0008110
   10  -0.0006955   0.0013538  -0.0018508  -0.0012264   0.0014150   0.0000216
   11   0.0006056  -0.0006211   0.0006448   0.0024763  -0.0000471   0.0010727
   12   0.0005034   0.0001943  -0.0008908  -0.0007205   0.0009102   0.0008087
   13  -0.0048005   0.0011755  -0.0009045   0.0014836  -0.0013263  -0.0013607
   14   0.0040305  -0.0004462  -0.0008150  -0.0006219  -0.0006067  -0.0000928
   15  -0.0011309   0.0003612   0.0006841  -0.0002097  -0.0004451   0.0011050
   16   0.0071482  -0.0025204   0.0051434   0.0228179  -0.0081265  -0.0038107
   17  -0.0231135  -0.0271941   0.0117624  -0.0103038  -0.0368237  -0.0130199
   18   0.0143807   0.0254971   0.0206507  -0.0168165  -0.0275679   0.0166432
   19   0.0612296   0.0203143  -0.0372991   0.0043456   0.0004819   0.0033562
   20   0.0203143   0.1279431  -0.1039735  -0.0009126   0.0124337  -0.0131330
   21  -0.0372991  -0.1039735   0.2398713   0.0031439   0.0106787  -0.0180946
   22   0.0043456  -0.0009126   0.0031439   0.0442664   0.0156740   0.0087913
   23   0.0004819   0.0124337   0.0106787   0.0156740   0.1360310   0.1178894
   24   0.0033562  -0.0131330  -0.0180946   0.0087913   0.1178894   0.2413823
   25  -0.0161809  -0.0027834  -0.0010537  -0.0059865  -0.0083081  -0.0065390
   26   0.0057496  -0.0200971   0.0087780  -0.0132935   0.0003515  -0.0016476
   27  -0.0047006   0.0132021  -0.0002956  -0.0011024   0.0003308  -0.0008312
           25          26          27
    1  -0.2501218  -0.0217151  -0.1216252
    2   0.0846519   0.0204967  -0.0290169
    3  -0.0326907  -0.0024707  -0.0238616
    4   0.1452027   0.2514242   0.0633647
    5   0.3649342  -0.1767017  -0.1259255
    6   0.0953364  -0.1068274   0.0504172
    7   0.0325081  -0.0145782  -0.0001782
    8   0.0005620  -0.0037659   0.0012605
    9   0.0051822  -0.0040361  -0.0032064
   10  -0.0311805   0.0130414   0.0163313
   11  -0.0059179   0.0047053   0.0020166
   12  -0.0109441   0.0039750   0.0047612
   13  -0.0000691   0.0114219  -0.0116075
   14   0.0006716   0.0009941  -0.0043645
   15   0.0016867   0.0036876  -0.0059087
   16  -0.1825298  -0.0100731   0.1465377
   17  -0.2118328  -0.0038532   0.0497366
   18   0.0360419   0.0057809  -0.0015594
   19  -0.0161809   0.0057496  -0.0047006
   20  -0.0027834  -0.0200971   0.0132021
   21  -0.0010537   0.0087780  -0.0002956
   22  -0.0059865  -0.0132935  -0.0011024
   23  -0.0083081   0.0003515   0.0003308
   24  -0.0065390  -0.0016476  -0.0008312
   25   0.3083577  -0.2219774  -0.0870197
   26  -0.2219774   0.1778703   0.0927603
   27  -0.0870197   0.0927603  -0.0195156
 **********************************************************************
 **                                                                  **
 **                       VIBRATIONAL ANALYSIS                       **
 **                       --------------------                       **
 **                                                                  **
 **        VIBRATIONAL FREQUENCIES (CM**-1) AND NORMAL MODES         **
 **     FORCE CONSTANTS (mDYN/ANGSTROM) AND REDUCED MASSES (AMU)     **
 **                  INFRARED INTENSITIES (KM/MOL)                   **
 **                                                                  **
 **********************************************************************
 

 Mode:                 1                      2                      3
 Frequency:     -1593.10               -1434.19                -549.92
 Force Cnst:      2.7328                 1.3831                 0.2054
 Red. Mass:       1.8275                 1.1413                 1.1530
 IR Active:          YES                    YES                    YES
 IR Intens:       78.881                 11.970                  9.518
 Raman Active:       YES                    YES                    YES
               X      Y      Z        X      Y      Z        X      Y      Z
 C         -0.125  0.101  0.023    0.069  0.022 -0.013   -0.010 -0.030 -0.037
 C          0.204  0.029  0.012   -0.002  0.011 -0.019    0.031 -0.008 -0.057
 H          0.145  0.020  0.002   -0.030  0.026  0.015   -0.268  0.044  0.529
 H         -0.245  0.032 -0.052   -0.060  0.041 -0.120    0.431  0.510 -0.049
 H          0.011  0.037 -0.009    0.164 -0.007 -0.023   -0.108 -0.305 -0.138
 O         -0.007 -0.062 -0.014   -0.061 -0.003 -0.029   -0.015  0.025  0.063
 H         -0.025 -0.010 -0.012    0.061 -0.049  0.012    0.056 -0.075 -0.082
 H         -0.057  0.002  0.005   -0.007 -0.049  0.031   -0.076  0.056 -0.091
 H         -0.642 -0.637 -0.130    0.036 -0.300  0.916   -0.043 -0.160 -0.043
 TransDip   0.053 -0.271 -0.068    0.002  0.069  0.087   -0.084  0.047 -0.022

 Mode:                 4                      5                      6
 Frequency:       441.38                 889.23                 966.69
 Force Cnst:      0.1515                 0.5263                 0.7802
 Red. Mass:       1.3196                 1.1297                 1.4171
 IR Active:          YES                    YES                    YES
 IR Intens:        1.732                  1.000                 83.642
 Raman Active:       YES                    YES                    YES
               X      Y      Z        X      Y      Z        X      Y      Z
 C          0.013 -0.009 -0.030   -0.010 -0.056  0.073    0.007  0.082  0.089
 C          0.060 -0.084  0.050    0.005 -0.020  0.021    0.047 -0.111 -0.040
 H         -0.335  0.125 -0.335   -0.209  0.032 -0.224   -0.103  0.099  0.028
 H          0.515  0.067  0.342   -0.211  0.291 -0.358   -0.314  0.186 -0.256
 H          0.201  0.429  0.146    0.598 -0.022  0.017    0.013 -0.177 -0.035
 O         -0.085  0.048 -0.029    0.000  0.030 -0.018   -0.066  0.018 -0.003
 H         -0.043  0.040  0.092    0.205 -0.125 -0.025   -0.133 -0.077 -0.117
 H          0.140 -0.142  0.093   -0.366  0.227 -0.108    0.763 -0.133 -0.063
 H         -0.001 -0.173 -0.115    0.038  0.027 -0.147    0.179  0.171 -0.095
 TransDip  -0.036 -0.010  0.019   -0.015 -0.028  0.006    0.280 -0.066 -0.055

 Mode:                 7                      8                      9
 Frequency:      1169.28                1197.01                1271.18
 Force Cnst:      1.5554                 1.0349                 1.1127
 Red. Mass:       1.9308                 1.2259                 1.1687
 IR Active:          YES                    YES                    YES
 IR Intens:       26.035                 14.186                 12.661
 Raman Active:       YES                    YES                    YES
               X      Y      Z        X      Y      Z        X      Y      Z
 C         -0.104 -0.133  0.054   -0.013  0.046 -0.012   -0.019  0.032 -0.009
 C         -0.047  0.159 -0.087    0.004 -0.048 -0.096   -0.075  0.035  0.012
 H         -0.241 -0.044 -0.156   -0.056  0.049 -0.029    0.561 -0.149  0.103
 H          0.073  0.347 -0.124   -0.143 -0.075 -0.036    0.275  0.130  0.141
 H          0.189  0.213  0.162   -0.029  0.008 -0.029    0.432  0.009 -0.048
 O          0.099 -0.056  0.008   -0.016  0.009  0.064   -0.049 -0.046 -0.005
 H         -0.164  0.392  0.057    0.685  0.339  0.255    0.410 -0.167  0.005
 H          0.488 -0.311  0.174   -0.175 -0.468  0.191    0.331  0.072 -0.063
 H         -0.122 -0.026  0.151    0.068  0.014 -0.076   -0.117  0.035 -0.092
 TransDip  -0.082  0.138 -0.031    0.055 -0.106 -0.016    0.076  0.072  0.044

 Mode:                10                     11                     12
 Frequency:      1315.15                1455.77                1504.49
 Force Cnst:      1.2356                 1.2864                 1.4358
 Red. Mass:       1.2125                 1.0303                 1.0766
 IR Active:          YES                    YES                    YES
 IR Intens:        7.441                  5.403                 48.577
 Raman Active:       YES                    YES                    YES
               X      Y      Z        X      Y      Z        X      Y      Z
 C         -0.064 -0.002 -0.043   -0.005 -0.007 -0.042    0.029 -0.041 -0.019
 C         -0.002  0.021  0.082   -0.002 -0.002 -0.010    0.025 -0.034  0.007
 H         -0.405  0.113 -0.058   -0.262  0.058  0.665    0.326 -0.138  0.208
 H         -0.076 -0.010 -0.022   -0.213 -0.385  0.065   -0.086  0.337 -0.364
 H         -0.364  0.140  0.038    0.412  0.308  0.063   -0.294  0.625  0.279
 O          0.045 -0.035 -0.028    0.007  0.003 -0.006   -0.034 -0.001  0.001
 H          0.586 -0.272  0.025   -0.050  0.033 -0.003    0.003  0.011  0.027
 H          0.290  0.324 -0.132    0.085  0.027 -0.026   -0.090  0.006 -0.014
 H          0.043  0.036  0.124   -0.016  0.017 -0.063    0.044  0.076 -0.015
 TransDip  -0.051  0.011  0.070   -0.053 -0.041  0.032    0.207  0.082 -0.011

 Mode:                13                     14                     15
 Frequency:      1545.80                1702.46                1956.38
 Force Cnst:      1.5439                 5.2658                 4.3492
 Red. Mass:       1.0967                 3.0836                 1.9287
 IR Active:          YES                    YES                    YES
 IR Intens:       30.032                 59.289                687.144
 Raman Active:       YES                    YES                    YES
               X      Y      Z        X      Y      Z        X      Y      Z
 C          0.015  0.000  0.003    0.311 -0.016  0.043   -0.074  0.015 -0.022
 C          0.026 -0.024 -0.013   -0.045  0.196 -0.001    0.181  0.100 -0.003
 H          0.005 -0.002 -0.024   -0.384  0.229 -0.056   -0.062  0.042 -0.001
 H          0.039 -0.004  0.026   -0.053 -0.118 -0.248    0.085  0.041  0.139
 H          0.009 -0.065 -0.025   -0.183 -0.047  0.097    0.115  0.012 -0.083
 O         -0.039 -0.055  0.007   -0.143 -0.125  0.011   -0.093 -0.130  0.011
 H         -0.035  0.668  0.357    0.119 -0.061 -0.075   -0.031 -0.066 -0.260
 H          0.064  0.524 -0.356    0.059 -0.061  0.100   -0.249 -0.079  0.163
 H          0.046  0.045  0.037   -0.455 -0.090 -0.492    0.346  0.746  0.165
 TransDip   0.175 -0.010 -0.007   -0.225  0.047 -0.090    0.775  0.298  0.123

 Mode:                16                     17                     18
 Frequency:      2937.66                2995.39                3012.18
 Force Cnst:      5.2846                 5.7884                 5.6573
 Red. Mass:       1.0393                 1.0950                 1.0583
 IR Active:          YES                    YES                    YES
 IR Intens:      102.220                109.899                 62.118
 Raman Active:       YES                    YES                    YES
               X      Y      Z        X      Y      Z        X      Y      Z
 C         -0.008 -0.012 -0.001    0.011  0.022  0.007   -0.035 -0.039 -0.005
 C          0.022  0.042 -0.021    0.009  0.004 -0.084   -0.001 -0.019 -0.038
 H          0.038  0.194 -0.001   -0.110 -0.366 -0.014    0.254  0.765  0.023
 H          0.001 -0.001 -0.005   -0.066  0.055  0.065    0.146 -0.141 -0.198
 H          0.009 -0.008 -0.001   -0.005  0.064 -0.155    0.008 -0.100  0.226
 O         -0.001  0.002  0.001   -0.006 -0.008  0.002   -0.001 -0.001  0.001
 H         -0.144 -0.394  0.688   -0.096 -0.279  0.463   -0.014 -0.045  0.075
 H         -0.032 -0.287 -0.459    0.044  0.376  0.588    0.028  0.238  0.369
 H         -0.015  0.118  0.012    0.097 -0.043 -0.067    0.023 -0.013  0.008
 TransDip   0.028  0.307 -0.100    0.080  0.107 -0.308    0.001 -0.222 -0.121

 Mode:                19                     20                     21
 Frequency:      3137.39                3179.17                3837.34
 Force Cnst:      6.2798                 6.6147                 9.6484
 Red. Mass:       1.0828                 1.1108                 1.1121
 IR Active:          YES                    YES                    YES
 IR Intens:       23.019                  7.774                261.623
 Raman Active:       YES                    YES                    YES
               X      Y      Z        X      Y      Z        X      Y      Z
 C         -0.029  0.073 -0.025    0.033 -0.015 -0.090   -0.024  0.008 -0.003
 C          0.007  0.006 -0.003    0.000 -0.002 -0.004   -0.007  0.079  0.025
 H         -0.129 -0.362 -0.014    0.025  0.053 -0.012    0.068  0.032  0.018
 H          0.310 -0.251 -0.376   -0.448  0.380  0.515   -0.060 -0.012 -0.016
 H          0.058 -0.269  0.680    0.059 -0.248  0.556   -0.004 -0.000  0.019
 O          0.001 -0.002  0.000   -0.001 -0.000  0.001   -0.024 -0.028  0.003
 H         -0.015 -0.035  0.054   -0.002 -0.010  0.016   -0.029  0.007 -0.022
 H         -0.006 -0.016 -0.022    0.002  0.026  0.041   -0.002 -0.060 -0.077
 H          0.022  0.038  0.004   -0.015  0.010 -0.016    0.780 -0.557 -0.226
 TransDip   0.080  0.128 -0.027   -0.048  0.015 -0.074    0.336  0.394 -0.011

 STANDARD THERMODYNAMIC QUANTITIES AT   298.15 K  AND     1.00 ATM

   This Molecule has  3 Imaginary Frequencies
   Zero point vibrational energy:       49.340 kcal/mol

   Atom    1 Element C  Has Mass   12.00000
   Atom    2 Element C  Has Mass   12.00000
   Atom    3 Element H  Has Mass    1.00783
   Atom    4 Element H  Has Mass    1.00783
   Atom    5 Element H  Has Mass    1.00783
   Atom    6 Element O  Has Mass   15.99491
   Atom    7 Element H  Has Mass    1.00783
   Atom    8 Element H  Has Mass    1.00783
   Atom    9 Element H  Has Mass    1.00783
   Molecular Mass:    46.041890 amu
   Principal axes and moments of inertia in amu*Bohr^2:
                             1           2           3
    Eigenvalues --       61.06716   136.89280   174.13566
          X               0.99854    -0.05394    -0.00383
          Y               0.05395     0.99854     0.00368
          Z               0.00363    -0.00388     0.99999
   Rotational Symmetry Number is   1
   The Molecule is an Asymmetric Top
   Translational Enthalpy:        0.889 kcal/mol
   Rotational Enthalpy:           0.889 kcal/mol
   Vibrational Enthalpy:         49.620 kcal/mol
   gas constant (RT):             0.592 kcal/mol
   Translational Entropy:        37.406  cal/mol.K
   Rotational Entropy:           21.903  cal/mol.K
   Vibrational Entropy:           1.262  cal/mol.K

   Total Enthalpy:               51.990 kcal/mol
   Total Entropy:                60.571  cal/mol.K
Archival summary:
1\1\node018\FREQ\ProcedureUnspecified\6-31G*\126\guest94\MonMar918:26:002020MonMar918:26:002020\0\\#,FREQ,ProcedureUnspecified,6-31G*,\\0,1\O\H,1,1.00568\C,2,1.03835,1,73.5952\C,2,1.0922,1,143.228,3,96.6959,0\H,4,1.0922,2,109.471,1,125.428,0\H,4,1.0922,2,109.471,1,5.4275,0\H,4,1.0922,2,109.471,1,-114.572,0\H,3,1.1017,2,129.887,1,103.236,0\H,3,1.1017,2,90.9071,1,-131.667,0\\\@

 Total job time:  24.26s(wall), 30.99s(cpu) 
 Mon Mar  9 18:26:00 2020

        *************************************************************
        *                                                           *
        *  Thank you very much for using Q-Chem.  Have a nice day.  *
        *                                                           *
        *************************************************************


