                  Welcome to Q-Chem
     A Quantum Leap Into The Future Of Chemistry


 Q-Chem 5.2 (devel), Q-Chem, Inc., Pleasanton, CA (2019)

 Yihan Shao,  Zhengting Gan,  E. Epifanovsky,  A. T. B. Gilbert,  M. Wormit,  
 J. Kussmann,  A. W. Lange,  A. Behn,  Jia Deng,  Xintian Feng,  D. Ghosh,  
 M. Goldey,  P. R. Horn,  L. D. Jacobson,  I. Kaliman,  T. Kus,  A. Landau,  
 Jie Liu,  E. I. Proynov,  R. M. Richard,  R. P. Steele,  E. J. Sundstrom,  
 H. L. Woodcock III,  P. M. Zimmerman,  D. Zuev,  B. Albrecht,  E. Alguire,  
 S. A. Baeppler,  D. Barton,  Z. Benda,  Y. A. Bernard,  E. J. Berquist,  
 K. B. Bravaya,  H. Burton,  D. Casanova,  Chun-Min Chang,  Yunqing Chen,  
 A. Chien,  K. D. Closser,  M. P. Coons,  S. Coriani,  S. Dasgupta,  
 A. L. Dempwolff,  M. Diedenhofen,  Hainam Do,  R. G. Edgar,  Po-Tung Fang,  
 S. Faraji,  S. Fatehi,  Qingguo Feng,  K. D. Fenk,  J. Fosso-Tande,  
 J. Gayvert,  Qinghui Ge,  A. Ghysels,  G. Gidofalvi,  J. Gomes,  
 J. Gonthier,  A. Gunina,  D. Hait,  M. W. D. Hanson-Heine,  
 P. H. P. Harbach,  A. W. Hauser,  M. F. Herbst,  J. E. Herr,  
 E. G. Hohenstein,  Z. C. Holden,  Kerwin Hui,  B. C. Huynh,  T.-C. Jagau,  
 Hyunjun Ji,  B. Kaduk,  K. Khistyaev,  Jaehoon Kim,  P. Klunzinger,  K. Koh,  
 D. Kosenkov,  L. Koulias,  T. Kowalczyk,  C. M. Krauter,  A. Kunitsa,  
 Ka Un Lao,  A. Laurent,  K. V. Lawler,  Joonho Lee,  D. Lefrancois,  
 S. Lehtola,  D. S. Levine,  Yi-Pei Li,  You-Sheng Lin,  Fenglai Liu,  
 E. Livshits,  A. Luenser,  P. Manohar,  E. Mansoor,  S. F. Manzer,  
 Shan-Ping Mao,  Yuezhi Mao,  N. Mardirossian,  A. V. Marenich,  
 T. Markovich,  L. A. Martinez-Martinez,  S. A. Maurer,  N. J. Mayhall,  
 S. C. McKenzie,  J.-M. Mewes,  P. Morgante,  A. F. Morrison,  
 J. W. Mullinax,  K. Nanda,  T. S. Nguyen-Beck,  R. Olivares-Amaya,  
 J. A. Parkhill,  Zheng Pei,  T. M. Perrine,  F. Plasser,  P. Pokhilko,  
 S. Prager,  A. Prociuk,  E. Ramos,  D. R. Rehn,  F. Rob,  M. Scheurer,  
 M. Schneider,  N. Sergueev,  S. M. Sharada,  S. Sharma,  D. W. Small,  
 T. Stauch,  T. Stein,  Yu-Chuan Su,  A. J. W. Thom,  A. Tkatchenko,  
 T. Tsuchimochi,  N. M. Tubman,  L. Vogt,  M. L. Vidal,  O. Vydrov,  
 M. A. Watson,  J. Wenzel,  M. de Wergifosse,  T. A. Wesolowski,  A. White,  
 J. Witte,  A. Yamada,  Jun Yang,  K. Yao,  S. Yeganeh,  S. R. Yost,  
 Zhi-Qiang You,  A. Zech,  Igor Ying Zhang,  Xing Zhang,  Yan Zhao,  
 Ying Zhu,  B. R. Brooks,  G. K. L. Chan,  C. J. Cramer,  M. S. Gordon,  
 W. J. Hehre,  A. Klamt,  M. W. Schmidt,  C. D. Sherrill,  D. G. Truhlar,  
 A. Aspuru-Guzik,  R. Baer,  A. T. Bell,  N. A. Besley,  Jeng-Da Chai,  
 A. E. DePrince, III,  R. A. DiStasio Jr.,  A. Dreuw,  B. D. Dunietz,  
 T. R. Furlani,  Chao-Ping Hsu,  Yousung Jung,  Jing Kong,  D. S. Lambrecht,  
 WanZhen Liang,  C. Ochsenfeld,  V. A. Rassolov,  L. V. Slipchenko,  
 J. E. Subotnik,  T. Van Voorhis,  J. M. Herbert,  A. I. Krylov,  
 P. M. W. Gill,  M. Head-Gordon

 Contributors to earlier versions of Q-Chem not listed above: 
 R. D. Adamson,  B. Austin,  J. Baker,  G. J. O. Beran,  K. Brandhorst,  
 S. T. Brown,  E. F. C. Byrd,  A. K. Chakraborty,  C.-L. Cheng,  
 Siu Hung Chien,  D. M. Chipman,  D. L. Crittenden,  H. Dachsel,  
 R. J. Doerksen,  A. D. Dutoi,  L. Fusti-Molnar,  W. A. Goddard III,  
 A. Golubeva-Zadorozhnaya,  S. R. Gwaltney,  G. Hawkins,  A. Heyden,  
 S. Hirata,  G. Kedziora,  F. J. Keil,  C. Kelley,  Jihan Kim,  R. A. King,  
 R. Z. Khaliullin,  P. P. Korambath,  W. Kurlancheek,  A. M. Lee,  M. S. Lee,  
 S. V. Levchenko,  Ching Yeh Lin,  D. Liotard,  R. C. Lochan,  I. Lotan,  
 P. E. Maslen,  N. Nair,  D. P. O'Neill,  D. Neuhauser,  E. Neuscamman,  
 C. M. Oana,  R. Olson,  B. Peters,  R. Peverati,  P. A. Pieniazek,  
 Y. M. Rhee,  J. Ritchie,  M. A. Rohrdanz,  E. Rosta,  N. J. Russ,  
 H. F. Schaefer III,  N. E. Schultz,  N. Shenvi,  A. C. Simmonett,  A. Sodt,  
 D. Stuck,  K. S. Thanthiriwatte,  V. Vanovschi,  Tao Wang,  A. Warshel,  
 C. F. Williams,  Q. Wu,  X. Xu,  W. Zhang

 Please cite Q-Chem as follows:
 Y. Shao et al., Mol. Phys. 113, 184-215 (2015)
 DOI: 10.1080/00268976.2014.952696

 Q-Chem 5.2.1 for Intel X86 EM64T Linux

 Parts of Q-Chem use Armadillo 8.300.2 (Tropical Shenanigans).
 http://arma.sourceforge.net/

 Q-Chem begins on Sun Mar 22 17:01:38 2020  

Host: node018
0

     Scratch files written to /tmp/ypli/106200.h81/qchem9302//
NAlpha2: 26
NElect   26
Mult     1

Checking the input file for inconsistencies... 	...done.

--------------------------------------------------------------
User input:
--------------------------------------------------------------
$rem
jobtype = freq
exchange = b3lyp
basis = 6-31g*
$end

$molecule
0 1
C      0.52650229   -0.05964529    0.87728240
C     -0.00537779    0.07639086   -0.53338058
H      1.61151847    0.07484073    0.90020279
H      0.21688199    1.07021349   -0.93335332
H      0.43978033   -0.68039182   -1.18620051
O     -1.41333197   -0.10534417   -0.51636617
H     -1.72406883   -0.01280489   -1.43310803
H      0.06436837    0.68209147    1.53709909
H      0.28372715   -1.04535039    1.28782434
$end
--------------------------------------------------------------
 ----------------------------------------------------------------
             Standard Nuclear Orientation (Angstroms)
    I     Atom           X                Y                Z
 ----------------------------------------------------------------
    1      C       1.2291885062    -0.2098362202    -0.0000189610
    2      C      -0.0863591650     0.5389672387     0.0000178828
    3      H       2.0738660475     0.4847079912    -0.0003856142
    4      H      -0.1701848309     1.1678338458     0.8913994345
    5      H      -0.1702217805     1.1678317784    -0.8913608751
    6      O      -1.1523239706    -0.3987806577     0.0000334275
    7      H      -1.9805497697     0.1107078096    -0.0002490383
    8      H       1.3045236970    -0.8575382446     0.8797002796
    9      H       1.3041823542    -0.8580840297    -0.8793651372
 ----------------------------------------------------------------
 Molecular Point Group                 C1    NOp =  1
 Largest Abelian Subgroup              C1    NOp =  1
 Nuclear Repulsion Energy =          81.80496345 hartrees
 There are       13 alpha and       13 beta electrons
 Requested basis set is 6-31G(d)
 There are 24 shells and 57 basis functions

 Total QAlloc Memory Limit   2000 MB
 Mega-Array Size       188 MB
 MEM_STATIC part       192 MB

                       Distance Matrix (Angstroms)
             C (  1)   C (  2)   H (  3)   H (  4)   H (  5)   O (  6)
   C (  2)  1.513728
   H (  3)  1.093559  2.160907
   H (  4)  2.156582  1.094103  2.509523
   H (  5)  2.156573  1.094102  2.509268  1.782760
   O (  6)  2.388996  1.419737  3.344974  2.052660  2.052653
   H (  7)  3.225704  1.942000  4.071629  2.278151  2.277911  0.972387
   H (  8)  1.095034  2.158385  1.779906  2.505401  3.068168  2.649599
   H (  9)  1.095034  2.158396  1.779918  3.068177  2.505663  2.649288
             H (  7)   H (  8)
   H (  8)  3.536032
   H (  9)  3.535657  1.759066
 
 A cutoff of  1.0D-11 yielded    299 shell pairs
 There are      1733 function pairs
 Smallest overlap matrix eigenvalue = 5.80E-03
 Guess from superposition of atomic densities
 Warning:  Energy on first SCF cycle will be non-variational
 SAD guess density has 26.000000 electrons

 -----------------------------------------------------------------------
  General SCF calculation program by
  Eric Jon Sundstrom, Paul Horn, Yuezhi Mao, Dmitri Zuev, Alec White,
  David Stuck, Shaama M.S., Shane Yost, Joonho Lee, David Small,
  Daniel Levine, Susi Lehtola, Hugh Burton, Evgeny Epifanovsky,
  Bang C. Huynh
 -----------------------------------------------------------------------
 Exchange:     0.2000 Hartree-Fock + 0.0800 Slater + 0.7200 B88
 Correlation:  0.1900 VWN1RPA + 0.8100 LYP
 Using SG-1 standard quadrature grid
 using 2 threads for integral computing
 -------------------------------------------------------
 OpenMP Integral computing Module                
 Release: version 2.0, May 2017, Q-Chem Inc. Pleasanton 
 -------------------------------------------------------
 A restricted SCF calculation will be
 performed using DIIS
 SCF converges when DIIS error is below 1.0e-08
 ---------------------------------------
  Cycle       Energy         DIIS error
 ---------------------------------------
    1    -155.3486841450      1.00e-01  
    2    -154.9422998752      1.57e-02  
    3    -154.9020524802      1.97e-02  
    4    -155.0319843946      1.86e-03  
    5    -155.0329533108      7.34e-04  
    6    -155.0331364030      7.04e-05  
    7    -155.0331380580      1.60e-05  
    8    -155.0331381468      4.80e-06  
    9    -155.0331381554      6.88e-07  
   10    -155.0331381556      5.95e-08  
   11    -155.0331381556      8.76e-09  Convergence criterion met
 ---------------------------------------
 SCF time:   CPU 3.93s  wall 2.00s 
 SCF   energy in the final basis set =     -155.0331381556
 Total energy in the final basis set =     -155.0331381556
 
 --------------------------------------------------------------
 
                    Orbital Energies (a.u.)
 --------------------------------------------------------------
 
 Alpha MOs
 -- Occupied --
-19.1346 -10.2257 -10.1718  -1.0089  -0.7440  -0.6063  -0.5084  -0.4624
 -0.3972  -0.3806  -0.3610  -0.3237  -0.2592
 -- Virtual --
  0.0752   0.1214   0.1572   0.1638   0.1756   0.1995   0.2170   0.2417
  0.5282   0.5567   0.5630   0.5841   0.6757   0.6892   0.8075   0.8564
  0.8778   0.8966   0.9085   0.9357   0.9899   1.0213   1.0271   1.1694
  1.3741   1.4449   1.4784   1.6659   1.7501   1.7843   1.9325   1.9508
  2.0576   2.1830   2.2204   2.3436   2.3868   2.4019   2.4910   2.6261
  2.8426   3.7221   4.1761   4.4005
 --------------------------------------------------------------
 
          Ground-State Mulliken Net Atomic Charges

     Atom                 Charge (a.u.)
  ----------------------------------------
      1 C                    -0.444911
      2 C                    -0.021493
      3 H                     0.141871
      4 H                     0.118831
      5 H                     0.118823
      6 O                    -0.616325
      7 H                     0.387956
      8 H                     0.157619
      9 H                     0.157628
  ----------------------------------------
  Sum of atomic charges =     0.000000

 -----------------------------------------------------------------
                    Cartesian Multipole Moments
 -----------------------------------------------------------------
    Charge (ESU x 10^10)
                -0.0000
    Dipole Moment (Debye)
         X      -0.2193      Y       1.5623      Z      -0.0005
       Tot       1.5776
    Quadrupole Moments (Debye-Ang)
        XX     -16.6977     XY      -2.0537     YY     -20.4052
        XZ       0.0011     YZ      -0.0000     ZZ     -19.9037
    Octopole Moments (Debye-Ang^2)
       XXX     -15.4678    XXY       2.6989    XYY      -0.8190
       YYY      -1.0405    XXZ      -0.0024    XYZ      -0.0001
       YYZ      -0.0004    XZZ      -1.4468    YZZ      -0.4479
       ZZZ       0.0004
    Hexadecapole Moments (Debye-Ang^3)
      XXXX    -132.1744   XXXY      -0.4528   XXYY     -35.2732
      XYYY       0.7589   YYYY     -55.7191   XXXZ       0.0040
      XXYZ      -0.0009   XYYZ      -0.0003   YYYZ       0.0005
      XXZZ     -32.2572   XYZZ      -0.7742   YYZZ     -13.6970
      XZZZ       0.0015   YZZZ      -0.0002   ZZZZ     -32.2265
 -----------------------------------------------------------------
 Calculating MO derivatives via CPSCF
    1     0    30    0.0407059  
    2     0    30    0.0043056  
    3     0    30    0.0002385  
    4    20    10    0.0000076  
    5    30     0    0.0000002  Converged
 Time for AOints: 0.4 s (CPU) 0.2 s (wall)
 ------------------------------------------------------------------------------
                     AOints        : Timing summary (seconds)
 ------------------------------------------------------------------------------
     job step          cpu (% of tot)      sys (% of tot)     wall (% of tot)
 ------------------------------------------------------------------------------
  AOints            0.3792E+00 ( 4.2)   0.4000E-05 (12.1)   0.2112E+00 ( 4.5)
 ------------------------------------------------------------------------------
   Grand Totals     0.9121E+01          0.3300E-04          0.4691E+01
 ------------------------------------------------------------------------------
 Polarizability Matrix (a.u.)
            1           2           3
    1 -29.6168172   0.6119308  -0.0008212
    2   0.6119308 -25.3362389   0.0002072
    3  -0.0008212   0.0002072 -23.6388248
 Calculating analytic Hessian of the SCF energy
 
 Direct stationary perturbation theory relativistic correction:
 
 rels  =       0.047282695457
 relv  =      -0.196643680901
 rel2e =       0.070902939093
 E_rel =      -0.078458046351
 
 Hessian of the SCF Energy
            1           2           3           4           5           6
    1   0.5308882   0.0414913   0.0000003  -0.1718226   0.0593727  -0.0000005
    2   0.0414913   0.5724132  -0.0000009   0.0734646  -0.1265398  -0.0000011
    3   0.0000003  -0.0000009   0.5767395  -0.0000016   0.0000026  -0.0858066
    4  -0.1718226   0.0734646  -0.0000016   0.4953472  -0.0400488   0.0000150
    5   0.0593727  -0.1265398   0.0000026  -0.0400488   0.5509350  -0.0000056
    6  -0.0000005  -0.0000011  -0.0858066   0.0000150  -0.0000056   0.6197546
    7  -0.2091751  -0.1304582   0.0000713  -0.0170945  -0.0238032   0.0000084
    8  -0.1331099  -0.1600100   0.0000574   0.0123765   0.0129246  -0.0000058
    9   0.0000726   0.0000582  -0.0482749  -0.0000015   0.0000000  -0.0025317
   10  -0.0021522   0.0180021   0.0260869  -0.0524215   0.0199320   0.0230176
   11   0.0031275  -0.0086937  -0.0142863   0.0178175  -0.1261081  -0.1107858
   12  -0.0002094   0.0013580   0.0012976   0.0225791  -0.1139492  -0.2327741
   13  -0.0021573   0.0179968  -0.0260896  -0.0524227   0.0199359  -0.0230241
   14   0.0031261  -0.0086922   0.0142870   0.0178196  -0.1261118   0.1107846
   15   0.0002076  -0.0013578   0.0012990  -0.0225838   0.1139481  -0.2327722
   16  -0.0394074  -0.0285399   0.0000022  -0.1673174  -0.0974822   0.0000038
   17   0.0094731   0.0155291  -0.0000005  -0.0475406  -0.1694061   0.0000160
   18  -0.0000007  -0.0000025   0.0040959  -0.0000157   0.0000033  -0.0663160
   19  -0.0047606  -0.0075403   0.0000018  -0.0294456   0.0230097  -0.0000102
   20  -0.0027027  -0.0031223  -0.0000007  -0.0350473   0.0093584  -0.0000087
   21   0.0000024   0.0000002  -0.0002603   0.0000051   0.0000018  -0.0011646
   22  -0.0507110   0.0078118  -0.0117069  -0.0024159   0.0195354  -0.0272887
   23   0.0096290  -0.1403636   0.1243913   0.0005833  -0.0125236   0.0159942
   24  -0.0129111   0.1254285  -0.2246170   0.0000999  -0.0007833   0.0008067
   25  -0.0507021   0.0077718   0.0116357  -0.0024070   0.0195485   0.0272786
   26   0.0095928  -0.1405207  -0.1244499   0.0005753  -0.0125286  -0.0159879
   27   0.0128387  -0.1254826  -0.2244732  -0.0000964   0.0007821   0.0008039
            7           8           9          10          11          12
    1  -0.2091751  -0.1331099   0.0000726  -0.0021522   0.0031275  -0.0002094
    2  -0.1304582  -0.1600100   0.0000582   0.0180021  -0.0086937   0.0013580
    3   0.0000713   0.0000574  -0.0482749   0.0260869  -0.0142863   0.0012976
    4  -0.0170945   0.0123765  -0.0000015  -0.0524215   0.0178175   0.0225791
    5  -0.0238032   0.0129246   0.0000000   0.0199320  -0.1261081  -0.1139492
    6   0.0000084  -0.0000058  -0.0025317   0.0230176  -0.1107858  -0.2327741
    7   0.2266637   0.1447659  -0.0000770   0.0009044   0.0003051   0.0007530
    8   0.1447659   0.1699925  -0.0000659  -0.0009134   0.0005189  -0.0001872
    9  -0.0000770  -0.0000659   0.0466148  -0.0001474   0.0001374  -0.0000651
   10   0.0009044  -0.0009134  -0.0001474   0.0624115  -0.0086567  -0.0200921
   11   0.0003051   0.0005189   0.0001374  -0.0086567   0.1458802   0.1300432
   12   0.0007530  -0.0001872  -0.0000651  -0.0200921   0.1300432   0.2421191
   13   0.0009052  -0.0009123   0.0001465   0.0027500  -0.0007436   0.0038296
   14   0.0003038   0.0005206  -0.0001377  -0.0007442   0.0126557  -0.0147378
   15  -0.0007538   0.0001870  -0.0000643  -0.0038306   0.0147386  -0.0224115
   16  -0.0062767   0.0040122  -0.0000017  -0.0089386  -0.0148131  -0.0061579
   17   0.0051486  -0.0015320  -0.0000005  -0.0298598  -0.0238464  -0.0026301
   18  -0.0000010   0.0000001   0.0006475  -0.0231827  -0.0204819   0.0087191
   19  -0.0015329   0.0012984  -0.0000006   0.0018348   0.0008851  -0.0008422
   20  -0.0012160   0.0008337   0.0000003  -0.0006084   0.0002290  -0.0003766
   21   0.0000011   0.0000002   0.0008624  -0.0006608   0.0008025   0.0002961
   22   0.0028071  -0.0137528   0.0223581   0.0012213  -0.0009270   0.0003380
   23   0.0024804  -0.0116207   0.0162871  -0.0007315   0.0001184  -0.0001467
   24   0.0008687  -0.0018709   0.0013961  -0.0006417  -0.0001424   0.0011147
   25   0.0027988  -0.0137645  -0.0223491  -0.0056096   0.0030053  -0.0001980
   26   0.0024736  -0.0116277  -0.0162789   0.0035798  -0.0007540   0.0006263
   27  -0.0008707   0.0018852   0.0014151  -0.0005493  -0.0000255   0.0017040
           13          14          15          16          17          18
    1  -0.0021573   0.0031261   0.0002076  -0.0394074   0.0094731  -0.0000007
    2   0.0179968  -0.0086922  -0.0013578  -0.0285399   0.0155291  -0.0000025
    3  -0.0260896   0.0142870   0.0012990   0.0000022  -0.0000005   0.0040959
    4  -0.0524227   0.0178196  -0.0225838  -0.1673174  -0.0475406  -0.0000157
    5   0.0199359  -0.1261118   0.1139481  -0.0974822  -0.1694061   0.0000033
    6  -0.0230241   0.1107846  -0.2327722   0.0000038   0.0000160  -0.0663160
    7   0.0009052   0.0003038  -0.0007538  -0.0062767   0.0051486  -0.0000010
    8  -0.0009123   0.0005206   0.0001870   0.0040122  -0.0015320   0.0000001
    9   0.0001465  -0.0001377  -0.0000643  -0.0000017  -0.0000005   0.0006475
   10   0.0027500  -0.0007442  -0.0038306  -0.0089386  -0.0298598  -0.0231827
   11  -0.0007436   0.0126557   0.0147386  -0.0148131  -0.0238464  -0.0204819
   12   0.0038296  -0.0147378  -0.0224115  -0.0061579  -0.0026301   0.0087191
   13   0.0624159  -0.0086597   0.0201007  -0.0089394  -0.0298596   0.0231837
   14  -0.0086597   0.1458803  -0.1300438  -0.0148100  -0.0238471   0.0204846
   15   0.0201007  -0.1300438   0.2421173   0.0061567   0.0026296   0.0087158
   16  -0.0089394  -0.0148100   0.0061567   0.5762906  -0.0768034   0.0001291
   17  -0.0298596  -0.0238471   0.0026296  -0.0768034   0.3750632  -0.0000909
   18   0.0231837   0.0204846   0.0087158   0.0001291  -0.0000909   0.0488001
   19   0.0018369   0.0008857   0.0008433  -0.3509114   0.1717012  -0.0001139
   20  -0.0006090   0.0002306   0.0003765   0.2298828  -0.1758438   0.0000865
   21   0.0006608  -0.0008036   0.0002981  -0.0001311   0.0000763  -0.0049504
   22  -0.0056087   0.0030054   0.0001982   0.0027487  -0.0011293   0.0008542
   23   0.0035817  -0.0007542  -0.0006256  -0.0007223   0.0019408  -0.0013194
   24   0.0005505   0.0000243   0.0017045  -0.0005504  -0.0004935   0.0001442
   25   0.0012200  -0.0009269  -0.0003382   0.0027516  -0.0011303  -0.0008531
   26  -0.0007302   0.0001181   0.0001473  -0.0007242   0.0019422   0.0013202
   27   0.0006419   0.0001424   0.0011133   0.0005494   0.0004936   0.0001439
           19          20          21          22          23          24
    1  -0.0047606  -0.0027027   0.0000024  -0.0507110   0.0096290  -0.0129111
    2  -0.0075403  -0.0031223   0.0000002   0.0078118  -0.1403636   0.1254285
    3   0.0000018  -0.0000007  -0.0002603  -0.0117069   0.1243913  -0.2246170
    4  -0.0294456  -0.0350473   0.0000051  -0.0024159   0.0005833   0.0000999
    5   0.0230097   0.0093584   0.0000018   0.0195354  -0.0125236  -0.0007833
    6  -0.0000102  -0.0000087  -0.0011646  -0.0272887   0.0159942   0.0008067
    7  -0.0015329  -0.0012160   0.0000011   0.0028071   0.0024804   0.0008687
    8   0.0012984   0.0008337   0.0000002  -0.0137528  -0.0116207  -0.0018709
    9  -0.0000006   0.0000003   0.0008624   0.0223581   0.0162871   0.0013961
   10   0.0018348  -0.0006084  -0.0006608   0.0012213  -0.0007315  -0.0006417
   11   0.0008851   0.0002290   0.0008025  -0.0009270   0.0001184  -0.0001424
   12  -0.0008422  -0.0003766   0.0002961   0.0003380  -0.0001467   0.0011147
   13   0.0018369  -0.0006090   0.0006608  -0.0056087   0.0035817   0.0005505
   14   0.0008857   0.0002306  -0.0008036   0.0030054  -0.0007542   0.0000243
   15   0.0008433   0.0003765   0.0002981   0.0001982  -0.0006256   0.0017045
   16  -0.3509114   0.2298828  -0.0001311   0.0027487  -0.0007223  -0.0005504
   17   0.1717012  -0.1758438   0.0000763  -0.0011293   0.0019408  -0.0004935
   18  -0.0001139   0.0000865  -0.0049504   0.0008542  -0.0013194   0.0001442
   19   0.3817500  -0.1896343   0.0001222   0.0006142  -0.0003026  -0.0000068
   20  -0.1896343   0.1684802  -0.0000777  -0.0000327  -0.0000830  -0.0002871
   21   0.0001222  -0.0000777   0.0047133   0.0002252  -0.0000824   0.0001028
   22   0.0006142  -0.0000327   0.0002252   0.0517825  -0.0132124   0.0138101
   23  -0.0003026  -0.0000830  -0.0000824  -0.0132124   0.1503065  -0.1381767
   24  -0.0000068  -0.0002871   0.0001028   0.0138101  -0.1381767   0.2409988
   25   0.0006145  -0.0000325  -0.0002249  -0.0004382  -0.0013057  -0.0012192
   26  -0.0003029  -0.0000827   0.0000827  -0.0012983   0.0129793   0.0163010
   27   0.0000064   0.0002875   0.0001027   0.0012120  -0.0163217  -0.0216508
           25          26          27
    1  -0.0507021   0.0095928   0.0128387
    2   0.0077718  -0.1405207  -0.1254826
    3   0.0116357  -0.1244499  -0.2244732
    4  -0.0024070   0.0005753  -0.0000964
    5   0.0195485  -0.0125286   0.0007821
    6   0.0272786  -0.0159879   0.0008039
    7   0.0027988   0.0024736  -0.0008707
    8  -0.0137645  -0.0116277   0.0018852
    9  -0.0223491  -0.0162789   0.0014151
   10  -0.0056096   0.0035798  -0.0005493
   11   0.0030053  -0.0007540  -0.0000255
   12  -0.0001980   0.0006263   0.0017040
   13   0.0012200  -0.0007302   0.0006419
   14  -0.0009269   0.0001181   0.0001424
   15  -0.0003382   0.0001473   0.0011133
   16   0.0027516  -0.0007242   0.0005494
   17  -0.0011303   0.0019422   0.0004936
   18  -0.0008531   0.0013202   0.0001439
   19   0.0006145  -0.0003029   0.0000064
   20  -0.0000325  -0.0000827   0.0002875
   21  -0.0002249   0.0000827   0.0001027
   22  -0.0004382  -0.0012983   0.0012120
   23  -0.0013057   0.0129793  -0.0163217
   24  -0.0012192   0.0163010  -0.0216508
   25   0.0517721  -0.0131658  -0.0137319
   26  -0.0131658   0.1504741   0.1382391
   27  -0.0137319   0.1382391   0.2408411
 **********************************************************************
 **                                                                  **
 **                       VIBRATIONAL ANALYSIS                       **
 **                       --------------------                       **
 **                                                                  **
 **        VIBRATIONAL FREQUENCIES (CM**-1) AND NORMAL MODES         **
 **     FORCE CONSTANTS (mDYN/ANGSTROM) AND REDUCED MASSES (AMU)     **
 **                  INFRARED INTENSITIES (KM/MOL)                   **
 **                                                                  **
 **********************************************************************
 

 Mode:                 1                      2                      3
 Frequency:       236.66                 362.67                 413.07
 Force Cnst:      0.0374                 0.0841                 0.2670
 Red. Mass:       1.1333                 1.0850                 2.6561
 IR Active:          YES                    YES                    YES
 IR Intens:        3.812                124.499                 11.238
 Raman Active:       YES                    YES                    YES
               X      Y      Z        X      Y      Z        X      Y      Z
 C         -0.000 -0.000 -0.004   -0.000 -0.000  0.030   -0.194 -0.054 -0.000
 C          0.000  0.000 -0.069   -0.000  0.000 -0.042   -0.020  0.188  0.000
 H          0.000  0.000  0.589    0.000 -0.000  0.087    0.095 -0.413 -0.000
 H          0.020  0.092 -0.133   -0.019  0.001 -0.047   -0.084  0.167  0.009
 H         -0.020 -0.092 -0.133    0.019 -0.001 -0.047   -0.084  0.167 -0.009
 O          0.000 -0.000  0.070    0.000 -0.000 -0.056    0.224 -0.061  0.000
 H          0.000 -0.000 -0.064   -0.000  0.000  0.985    0.051 -0.342 -0.001
 H         -0.310 -0.369 -0.247   -0.069 -0.003  0.033   -0.489 -0.104 -0.011
 H          0.310  0.368 -0.247    0.069  0.003  0.033   -0.489 -0.104  0.012
 TransDip  -0.000 -0.000 -0.063   -0.000  0.000  0.357   -0.099 -0.042 -0.000

 Mode:                 4                      5                      6
 Frequency:       814.57                 914.48                1057.12
 Force Cnst:      0.4231                 1.0357                 1.3698
 Red. Mass:       1.0824                 2.1020                 2.0805
 IR Active:          YES                    YES                    YES
 IR Intens:        0.021                 10.091                 47.474
 Raman Active:       YES                    YES                    YES
               X      Y      Z        X      Y      Z        X      Y      Z
 C          0.000 -0.000 -0.046    0.208  0.014 -0.000   -0.094  0.175 -0.000
 C         -0.000  0.000 -0.064   -0.009  0.148 -0.000    0.191 -0.103 -0.000
 H          0.000 -0.000  0.185    0.647 -0.525 -0.000    0.166 -0.161 -0.000
 H          0.273 -0.355  0.219   -0.219  0.099  0.002    0.090 -0.138  0.004
 H         -0.273  0.355  0.219   -0.219  0.099 -0.002    0.090 -0.138 -0.004
 O         -0.000  0.000  0.022   -0.133 -0.085  0.000   -0.054 -0.071  0.000
 H         -0.000 -0.000 -0.040   -0.124 -0.059  0.000    0.295  0.511 -0.000
 H         -0.348  0.272  0.188   -0.167 -0.102 -0.048   -0.463  0.096 -0.028
 H          0.348 -0.272  0.188   -0.167 -0.102  0.048   -0.463  0.096  0.028
 TransDip  -0.000 -0.000  0.005    0.085  0.056  0.000    0.187  0.118 -0.000

 Mode:                 7                      8                      9
 Frequency:      1150.36                1194.93                1305.93
 Force Cnst:      2.0255                 1.2919                 1.2164
 Red. Mass:       2.5979                 1.5356                 1.2106
 IR Active:          YES                    YES                    YES
 IR Intens:       32.762                  5.490                 88.266
 Raman Active:       YES                    YES                    YES
               X      Y      Z        X      Y      Z        X      Y      Z
 C         -0.084 -0.058  0.000   -0.000 -0.000 -0.115   -0.021 -0.078  0.000
 C          0.212  0.200 -0.000    0.000  0.000  0.175    0.018  0.082 -0.000
 H         -0.359  0.297 -0.000    0.000  0.000  0.225   -0.155  0.096 -0.000
 H          0.411  0.154  0.027    0.194  0.496 -0.154   -0.376  0.060 -0.017
 H          0.411  0.154 -0.027   -0.194 -0.496 -0.154   -0.377  0.060  0.017
 O         -0.133 -0.136  0.000   -0.000 -0.000 -0.054    0.009 -0.060  0.000
 H         -0.256 -0.314  0.000    0.000  0.000  0.012    0.416  0.632 -0.000
 H          0.191  0.090  0.074   -0.264  0.252  0.104    0.197  0.027  0.054
 H          0.191  0.090 -0.074    0.264 -0.252  0.104    0.197  0.027 -0.055
 TransDip   0.144  0.114 -0.000    0.000  0.000  0.075    0.226  0.199 -0.000

 Mode:                10                     11                     12
 Frequency:      1313.40                1429.67                1487.04
 Force Cnst:      1.1220                 1.4803                 1.8925
 Red. Mass:       1.1039                 1.2292                 1.4526
 IR Active:          YES                    YES                    YES
 IR Intens:        0.003                  1.156                 14.393
 Raman Active:       YES                    YES                    YES
               X      Y      Z        X      Y      Z        X      Y      Z
 C          0.000  0.000  0.084    0.109 -0.066 -0.000   -0.088  0.022  0.000
 C         -0.000 -0.000 -0.021    0.054 -0.008  0.000    0.160 -0.039  0.000
 H          0.000 -0.000 -0.114   -0.336  0.460  0.000    0.119 -0.226  0.000
 H          0.650  0.086 -0.011   -0.252 -0.015 -0.022   -0.508 -0.119 -0.017
 H         -0.650 -0.086 -0.011   -0.252 -0.015  0.022   -0.509 -0.120  0.017
 O          0.000  0.000 -0.031   -0.005  0.025 -0.000   -0.010  0.061 -0.000
 H         -0.000 -0.000 -0.009   -0.109 -0.154  0.000   -0.273 -0.395  0.000
 H          0.170 -0.165 -0.054   -0.456  0.108  0.161    0.238  0.052 -0.007
 H         -0.170  0.165 -0.054   -0.456  0.108 -0.161    0.238  0.052  0.007
 TransDip  -0.000 -0.000 -0.002   -0.032 -0.012  0.000    0.100 -0.068  0.000

 Mode:                13                     14                     15
 Frequency:      1510.54                1530.45                1546.22
 Force Cnst:      1.3976                 1.4699                 1.5177
 Red. Mass:       1.0396                 1.0651                 1.0774
 IR Active:          YES                    YES                    YES
 IR Intens:        4.710                  3.663                  0.317
 Raman Active:       YES                    YES                    YES
               X      Y      Z        X      Y      Z        X      Y      Z
 C         -0.000 -0.000 -0.049    0.002  0.040 -0.000   -0.011 -0.034  0.000
 C         -0.000  0.000 -0.023    0.033 -0.049 -0.000   -0.011 -0.070  0.000
 H          0.000  0.000  0.709   -0.120  0.167  0.000    0.145 -0.211  0.000
 H          0.025 -0.035  0.002   -0.075  0.400 -0.306    0.046  0.380 -0.294
 H         -0.025  0.035  0.002   -0.075  0.400  0.306    0.046  0.380  0.294
 O          0.000 -0.000  0.002   -0.007 -0.006  0.000   -0.001 -0.004  0.000
 H          0.000  0.000  0.009   -0.016 -0.023  0.000   -0.003 -0.008  0.000
 H          0.464  0.165  0.050   -0.015 -0.367 -0.285    0.023  0.382  0.290
 H         -0.464 -0.165  0.050   -0.015 -0.367  0.285    0.023  0.382 -0.290
 TransDip  -0.000  0.000  0.070   -0.030 -0.054  0.000   -0.017  0.004 -0.000

 Mode:                16                     17                     18
 Frequency:      3051.47                3065.15                3087.18
 Force Cnst:      5.7846                 5.7360                 6.2219
 Red. Mass:       1.0544                 1.0362                 1.1080
 IR Active:          YES                    YES                    YES
 IR Intens:       69.362                 14.203                 50.233
 Raman Active:       YES                    YES                    YES
               X      Y      Z        X      Y      Z        X      Y      Z
 C          0.005  0.005 -0.000   -0.040  0.031 -0.000   -0.000  0.000  0.029
 C          0.013 -0.063 -0.000    0.002 -0.004  0.000   -0.000  0.000 -0.091
 H         -0.068 -0.064  0.000    0.395  0.334 -0.000    0.000  0.000  0.007
 H         -0.052  0.387  0.584   -0.005  0.022  0.032   -0.059  0.386  0.543
 H         -0.052  0.387 -0.584   -0.005  0.022 -0.032    0.059 -0.386  0.543
 O         -0.003 -0.001  0.000   -0.000 -0.000  0.000    0.000 -0.000  0.000
 H         -0.001 -0.008 -0.000   -0.002 -0.001 -0.000   -0.000  0.000  0.003
 H          0.001  0.006 -0.005    0.033 -0.348  0.491   -0.011  0.131 -0.176
 H          0.001  0.006  0.005    0.032 -0.349 -0.491    0.011 -0.131 -0.176
 TransDip   0.010 -0.267 -0.000   -0.107  0.057 -0.000   -0.000  0.000 -0.227

 Mode:                19                     20                     21
 Frequency:      3131.72                3145.49                3702.47
 Force Cnst:      6.3763                 6.4283                 8.6116
 Red. Mass:       1.1035                 1.1027                 1.0662
 IR Active:          YES                    YES                    YES
 IR Intens:       57.359                 31.945                  9.338
 Raman Active:       YES                    YES                    YES
               X      Y      Z        X      Y      Z        X      Y      Z
 C         -0.000 -0.000 -0.088   -0.050 -0.078  0.000   -0.000 -0.001  0.000
 C         -0.000  0.000 -0.030    0.001 -0.007  0.000   -0.000  0.003 -0.000
 H         -0.000 -0.000 -0.016    0.657  0.538 -0.000    0.000  0.002 -0.000
 H         -0.022  0.124  0.178   -0.005  0.031  0.045    0.003  0.000 -0.002
 H          0.022 -0.124  0.178   -0.005  0.031 -0.045    0.003  0.000  0.002
 O         -0.000 -0.000  0.000    0.000  0.000 -0.000   -0.055  0.030 -0.000
 H         -0.000  0.000  0.002   -0.000  0.001  0.000    0.858 -0.510  0.000
 H          0.043 -0.401  0.535   -0.032  0.201 -0.301    0.001 -0.000  0.001
 H         -0.043  0.401  0.534   -0.032  0.202  0.301    0.001 -0.000 -0.001
 TransDip  -0.000  0.000 -0.243   -0.082 -0.161  0.000    0.095 -0.025  0.000

 STANDARD THERMODYNAMIC QUANTITIES AT   298.15 K  AND     1.00 ATM

   This Molecule has  0 Imaginary Frequencies
   Zero point vibrational energy:       50.679 kcal/mol

   Atom    1 Element C  Has Mass   12.00000
   Atom    2 Element C  Has Mass   12.00000
   Atom    3 Element H  Has Mass    1.00783
   Atom    4 Element H  Has Mass    1.00783
   Atom    5 Element H  Has Mass    1.00783
   Atom    6 Element O  Has Mass   15.99491
   Atom    7 Element H  Has Mass    1.00783
   Atom    8 Element H  Has Mass    1.00783
   Atom    9 Element H  Has Mass    1.00783
   Molecular Mass:    46.041890 amu
   Principal axes and moments of inertia in amu*Bohr^2:
                             1           2           3
    Eigenvalues --       50.31786   194.10544   221.84825
          X               0.99903    -0.04404     0.00001
          Y               0.04404     0.99903     0.00000
          Z              -0.00001     0.00000     1.00000
   Rotational Symmetry Number is   1
   The Molecule is an Asymmetric Top
   Translational Enthalpy:        0.889 kcal/mol
   Rotational Enthalpy:           0.889 kcal/mol
   Vibrational Enthalpy:         51.551 kcal/mol
   gas constant (RT):             0.592 kcal/mol
   Translational Entropy:        37.406  cal/mol.K
   Rotational Entropy:           22.298  cal/mol.K
   Vibrational Entropy:           4.461  cal/mol.K

   Total Enthalpy:               53.920 kcal/mol
   Total Entropy:                64.165  cal/mol.K
Archival summary:
1\1\node018\FREQ\ProcedureUnspecified\6-31G*\126\guest94\SunMar2217:01:502020SunMar2217:01:502020\0\\#,FREQ,ProcedureUnspecified,6-31G*,\\0,1\C\H,1,1.0941\H,1,1.0941,2,109.118\O,1,1.41974,2,108.79,3,118.558,0\H,4,0.972387,1,107.063,2,-59.3635,0\C,1,1.51373,2,110.544,3,-121.772,0\H,6,1.09356,1,110.923,2,60.4447,0\H,6,1.09503,1,110.633,2,-60.4357,0\H,6,1.09503,1,110.632,2,-178.677,0\\\@

 Total job time:  11.97s(wall), 27.87s(cpu) 
 Sun Mar 22 17:01:50 2020

        *************************************************************
        *                                                           *
        *  Thank you very much for using Q-Chem.  Have a nice day.  *
        *                                                           *
        *************************************************************


