                  Welcome to Q-Chem
     A Quantum Leap Into The Future Of Chemistry


 Q-Chem 5.2 (devel), Q-Chem, Inc., Pleasanton, CA (2019)

 Yihan Shao,  Zhengting Gan,  E. Epifanovsky,  A. T. B. Gilbert,  M. Wormit,  
 J. Kussmann,  A. W. Lange,  A. Behn,  Jia Deng,  Xintian Feng,  D. Ghosh,  
 M. Goldey,  P. R. Horn,  L. D. Jacobson,  I. Kaliman,  T. Kus,  A. Landau,  
 Jie Liu,  E. I. Proynov,  R. M. Richard,  R. P. Steele,  E. J. Sundstrom,  
 H. L. Woodcock III,  P. M. Zimmerman,  D. Zuev,  B. Albrecht,  E. Alguire,  
 S. A. Baeppler,  D. Barton,  Z. Benda,  Y. A. Bernard,  E. J. Berquist,  
 K. B. Bravaya,  H. Burton,  D. Casanova,  Chun-Min Chang,  Yunqing Chen,  
 A. Chien,  K. D. Closser,  M. P. Coons,  S. Coriani,  S. Dasgupta,  
 A. L. Dempwolff,  M. Diedenhofen,  Hainam Do,  R. G. Edgar,  Po-Tung Fang,  
 S. Faraji,  S. Fatehi,  Qingguo Feng,  K. D. Fenk,  J. Fosso-Tande,  
 J. Gayvert,  Qinghui Ge,  A. Ghysels,  G. Gidofalvi,  J. Gomes,  
 J. Gonthier,  A. Gunina,  D. Hait,  M. W. D. Hanson-Heine,  
 P. H. P. Harbach,  A. W. Hauser,  M. F. Herbst,  J. E. Herr,  
 E. G. Hohenstein,  Z. C. Holden,  Kerwin Hui,  B. C. Huynh,  T.-C. Jagau,  
 Hyunjun Ji,  B. Kaduk,  K. Khistyaev,  Jaehoon Kim,  P. Klunzinger,  K. Koh,  
 D. Kosenkov,  L. Koulias,  T. Kowalczyk,  C. M. Krauter,  A. Kunitsa,  
 Ka Un Lao,  A. Laurent,  K. V. Lawler,  Joonho Lee,  D. Lefrancois,  
 S. Lehtola,  D. S. Levine,  Yi-Pei Li,  You-Sheng Lin,  Fenglai Liu,  
 E. Livshits,  A. Luenser,  P. Manohar,  E. Mansoor,  S. F. Manzer,  
 Shan-Ping Mao,  Yuezhi Mao,  N. Mardirossian,  A. V. Marenich,  
 T. Markovich,  L. A. Martinez-Martinez,  S. A. Maurer,  N. J. Mayhall,  
 S. C. McKenzie,  J.-M. Mewes,  P. Morgante,  A. F. Morrison,  
 J. W. Mullinax,  K. Nanda,  T. S. Nguyen-Beck,  R. Olivares-Amaya,  
 J. A. Parkhill,  Zheng Pei,  T. M. Perrine,  F. Plasser,  P. Pokhilko,  
 S. Prager,  A. Prociuk,  E. Ramos,  D. R. Rehn,  F. Rob,  M. Scheurer,  
 M. Schneider,  N. Sergueev,  S. M. Sharada,  S. Sharma,  D. W. Small,  
 T. Stauch,  T. Stein,  Yu-Chuan Su,  A. J. W. Thom,  A. Tkatchenko,  
 T. Tsuchimochi,  N. M. Tubman,  L. Vogt,  M. L. Vidal,  O. Vydrov,  
 M. A. Watson,  J. Wenzel,  M. de Wergifosse,  T. A. Wesolowski,  A. White,  
 J. Witte,  A. Yamada,  Jun Yang,  K. Yao,  S. Yeganeh,  S. R. Yost,  
 Zhi-Qiang You,  A. Zech,  Igor Ying Zhang,  Xing Zhang,  Yan Zhao,  
 Ying Zhu,  B. R. Brooks,  G. K. L. Chan,  C. J. Cramer,  M. S. Gordon,  
 W. J. Hehre,  A. Klamt,  M. W. Schmidt,  C. D. Sherrill,  D. G. Truhlar,  
 A. Aspuru-Guzik,  R. Baer,  A. T. Bell,  N. A. Besley,  Jeng-Da Chai,  
 A. E. DePrince, III,  R. A. DiStasio Jr.,  A. Dreuw,  B. D. Dunietz,  
 T. R. Furlani,  Chao-Ping Hsu,  Yousung Jung,  Jing Kong,  D. S. Lambrecht,  
 WanZhen Liang,  C. Ochsenfeld,  V. A. Rassolov,  L. V. Slipchenko,  
 J. E. Subotnik,  T. Van Voorhis,  J. M. Herbert,  A. I. Krylov,  
 P. M. W. Gill,  M. Head-Gordon

 Contributors to earlier versions of Q-Chem not listed above: 
 R. D. Adamson,  B. Austin,  J. Baker,  G. J. O. Beran,  K. Brandhorst,  
 S. T. Brown,  E. F. C. Byrd,  A. K. Chakraborty,  C.-L. Cheng,  
 Siu Hung Chien,  D. M. Chipman,  D. L. Crittenden,  H. Dachsel,  
 R. J. Doerksen,  A. D. Dutoi,  L. Fusti-Molnar,  W. A. Goddard III,  
 A. Golubeva-Zadorozhnaya,  S. R. Gwaltney,  G. Hawkins,  A. Heyden,  
 S. Hirata,  G. Kedziora,  F. J. Keil,  C. Kelley,  Jihan Kim,  R. A. King,  
 R. Z. Khaliullin,  P. P. Korambath,  W. Kurlancheek,  A. M. Lee,  M. S. Lee,  
 S. V. Levchenko,  Ching Yeh Lin,  D. Liotard,  R. C. Lochan,  I. Lotan,  
 P. E. Maslen,  N. Nair,  D. P. O'Neill,  D. Neuhauser,  E. Neuscamman,  
 C. M. Oana,  R. Olson,  B. Peters,  R. Peverati,  P. A. Pieniazek,  
 Y. M. Rhee,  J. Ritchie,  M. A. Rohrdanz,  E. Rosta,  N. J. Russ,  
 H. F. Schaefer III,  N. E. Schultz,  N. Shenvi,  A. C. Simmonett,  A. Sodt,  
 D. Stuck,  K. S. Thanthiriwatte,  V. Vanovschi,  Tao Wang,  A. Warshel,  
 C. F. Williams,  Q. Wu,  X. Xu,  W. Zhang

 Please cite Q-Chem as follows:
 Y. Shao et al., Mol. Phys. 113, 184-215 (2015)
 DOI: 10.1080/00268976.2014.952696

 Q-Chem 5.2.1 for Intel X86 EM64T Linux

 Parts of Q-Chem use Armadillo 8.300.2 (Tropical Shenanigans).
 http://arma.sourceforge.net/

 Q-Chem begins on Mon Mar  9 18:25:46 2020  

Host: node019
0

     Scratch files written to /tmp/ypli/105346.h81/qchem6886//
NAlpha2: 26
NElect   26
Mult     1

Checking the input file for inconsistencies... 	...done.

--------------------------------------------------------------
User input:
--------------------------------------------------------------
$rem
jobtype = freq
exchange = b3lyp
basis = 6-31g*
$end

$molecule
0 1
C     -6.77938004    0.58414918   -0.15984835
C     -4.93535520    1.95338967    0.33782163
H     -7.14798340    1.28874322   -0.91164808
H     -7.24278636    0.79074600    0.80973731
H     -7.05081003   -0.42911155   -0.46793350
O     -5.36362967    0.65814949   -0.06046882
H     -5.33926227    2.20418154    1.32346180
H     -5.24444575    2.70216199   -0.39792769
H     -3.84370026    1.95225458    0.39762306
$end
--------------------------------------------------------------
 Atom   7: ( -1.2129597567, -0.8972360491, -0.8261676026)
         ->( -1.2129597537, -0.8972360595, -0.8261675899)
 Atom   8: ( -1.2129662228,  0.8972433956, -0.8261566159)
         ->( -1.2129662187,  0.8972433896, -0.8261566240)
 Atom   9: ( -2.0436270359, -0.0000071456,  0.4631432433)
         ->( -2.0436270399, -0.0000071365,  0.4631432425)
 ----------------------------------------------------------------
             Standard Nuclear Orientation (Angstroms)
    I     Atom           X                Y                Z
 ----------------------------------------------------------------
    1      C       1.1750449519     0.0000000150    -0.2008244996
    2      C      -1.1750449482    -0.0000000158    -0.2008245002
    3      H       1.2129597537     0.8972360595    -0.8261675899
    4      H       1.2129662187    -0.8972433896    -0.8261566240
    5      H       2.0436270399     0.0000071365     0.4631432425
    6      O      -0.0000000024    -0.0000000004     0.5985319931
    7      H      -1.2129597537    -0.8972360595    -0.8261675899
    8      H      -1.2129662187     0.8972433896    -0.8261566240
    9      H      -2.0436270399    -0.0000071365     0.4631432425
 ----------------------------------------------------------------
 Molecular Point Group                 C2    NOp =  2
 Largest Abelian Subgroup              C2    NOp =  2
 Nuclear Repulsion Energy =          83.61116497 hartrees
 There are       13 alpha and       13 beta electrons
 Requested basis set is 6-31G(d)
 There are 24 shells and 57 basis functions

 Total QAlloc Memory Limit   2000 MB
 Mega-Array Size       188 MB
 MEM_STATIC part       192 MB

                       Distance Matrix (Angstroms)
             C (  1)   C (  2)   H (  3)   H (  4)   H (  5)   O (  6)
   C (  2)  2.350090
   H (  3)  1.094314  2.626529
   H (  4)  1.094314  2.626534  1.794479
   H (  5)  1.093292  3.286442  1.776893  1.776893
   O (  6)  1.421162  1.421162  2.075108  2.075107  2.048107
   H (  7)  2.626529  1.094314  3.017485  2.425926  3.615622  2.075108
   H (  8)  2.626534  1.094314  2.425926  3.017504  3.615623  2.075107
   H (  9)  3.286442  1.093292  3.615622  3.615623  4.087254  2.048107
             H (  7)   H (  8)
   H (  8)  1.794479
   H (  9)  1.776893  1.776893
 
 A cutoff of  1.0D-11 yielded    299 shell pairs
 There are      1733 function pairs
 Smallest overlap matrix eigenvalue = 8.13E-03
 Guess from superposition of atomic densities
 Warning:  Energy on first SCF cycle will be non-variational
 SAD guess density has 26.000000 electrons

 -----------------------------------------------------------------------
  General SCF calculation program by
  Eric Jon Sundstrom, Paul Horn, Yuezhi Mao, Dmitri Zuev, Alec White,
  David Stuck, Shaama M.S., Shane Yost, Joonho Lee, David Small,
  Daniel Levine, Susi Lehtola, Hugh Burton, Evgeny Epifanovsky,
  Bang C. Huynh
 -----------------------------------------------------------------------
 Exchange:     0.2000 Hartree-Fock + 0.0800 Slater + 0.7200 B88
 Correlation:  0.1900 VWN1RPA + 0.8100 LYP
 Using SG-1 standard quadrature grid
 using 2 threads for integral computing
 -------------------------------------------------------
 OpenMP Integral computing Module                
 Release: version 2.0, May 2017, Q-Chem Inc. Pleasanton 
 -------------------------------------------------------
 A restricted SCF calculation will be
 performed using DIIS
 SCF converges when DIIS error is below 1.0e-08
 ---------------------------------------
  Cycle       Energy         DIIS error
 ---------------------------------------
    1    -155.3133330647      9.90e-02  
    2    -154.9715784453      1.15e-02  
    3    -154.9561230704      1.38e-02  
    4    -155.0228507655      2.21e-03  
    5    -155.0241986329      6.80e-04  
    6    -155.0243470559      8.65e-05  
    7    -155.0243496674      7.85e-06  
    8    -155.0243496957      8.10e-07  
    9    -155.0243496960      6.85e-08  
   10    -155.0243496961      1.26e-08  
   11    -155.0243496963      1.33e-09  Convergence criterion met
 ---------------------------------------
 SCF time:   CPU 4.58s  wall 2.00s 
 SCF   energy in the final basis set =     -155.0243496963
 Total energy in the final basis set =     -155.0243496963
 
 --------------------------------------------------------------
             Orbital Energies (a.u.) and Symmetries
 --------------------------------------------------------------
 
 Alpha MOs, Restricted
 -- Occupied --                  
-19.142 -10.223 -10.223  -1.020  -0.716  -0.637  -0.468  -0.467
  1 A     1 B     2 A     3 A     2 B     4 A     3 B     4 B                  
 -0.465  -0.398  -0.376  -0.312  -0.250
  5 A     6 A     5 B     7 A     6 B                                          
 -- Virtual --                   
  0.092   0.137   0.151   0.153   0.166   0.187   0.194   0.238
  8 A     9 A     7 B    10 A     8 B     9 B    11 A    10 B                  
  0.526   0.527   0.542   0.570   0.584   0.736   0.836   0.842
 12 A    11 B    13 A    12 B    14 A    13 B    14 B    15 A                  
  0.852   0.855   0.897   0.937   0.963   1.064   1.077   1.116
 16 A    15 B    17 A    18 A    16 B    19 A    17 B    18 B                  
  1.410   1.432   1.487   1.502   1.636   1.889   2.055   2.060
 20 A    19 B    21 A    20 B    22 A    21 B    23 A    22 B                  
  2.085   2.148   2.186   2.230   2.307   2.484   2.543   2.688
 24 A    25 A    23 B    24 B    25 B    26 A    27 A    28 A                  
  2.900   3.867   4.211   4.276
 26 B    29 A    27 B    30 A                                                  
 
 Beta MOs, Restricted
 -- Occupied --                  
-19.142 -10.223 -10.223  -1.020  -0.716  -0.637  -0.468  -0.467
  1 A     1 B     2 A     3 A     2 B     4 A     3 B     4 B                  
 -0.465  -0.398  -0.376  -0.312  -0.250
  5 A     6 A     5 B     7 A     6 B                                          
 -- Virtual --                   
  0.092   0.137   0.151   0.153   0.166   0.187   0.194   0.238
  8 A     9 A     7 B    10 A     8 B     9 B    11 A    10 B                  
  0.526   0.527   0.542   0.570   0.584   0.736   0.836   0.842
 12 A    11 B    13 A    12 B    14 A    13 B    14 B    15 A                  
  0.852   0.855   0.897   0.937   0.963   1.064   1.077   1.116
 16 A    15 B    17 A    18 A    16 B    19 A    17 B    18 B                  
  1.410   1.432   1.487   1.502   1.636   1.889   2.055   2.060
 20 A    19 B    21 A    20 B    22 A    21 B    23 A    22 B                  
  2.085   2.148   2.186   2.230   2.307   2.484   2.543   2.688
 24 A    25 A    23 B    24 B    25 B    26 A    27 A    28 A                  
  2.900   3.867   4.211   4.276
 26 B    29 A    27 B    30 A                                                  
 --------------------------------------------------------------
 
          Ground-State Mulliken Net Atomic Charges

     Atom                 Charge (a.u.)
  ----------------------------------------
      1 C                    -0.192303
      2 C                    -0.192303
      3 H                     0.130536
      4 H                     0.130537
      5 H                     0.158279
      6 O                    -0.454099
      7 H                     0.130536
      8 H                     0.130537
      9 H                     0.158279
  ----------------------------------------
  Sum of atomic charges =     0.000000

 -----------------------------------------------------------------
                    Cartesian Multipole Moments
 -----------------------------------------------------------------
    Charge (ESU x 10^10)
                 0.0000
    Dipole Moment (Debye)
         X      -0.0000      Y       0.0000      Z      -1.3392
       Tot       1.3392
    Quadrupole Moments (Debye-Ang)
        XX     -16.8763     XY       0.0000     YY     -19.9440
        XZ       0.0000     YZ      -0.0000     ZZ     -21.0216
    Octopole Moments (Debye-Ang^2)
       XXX      -0.0000    XXY       0.0000    XYY      -0.0000
       YYY       0.0000    XXZ       2.3651    XYZ       0.0000
       YYZ      -0.0804    XZZ      -0.0000    YZZ       0.0000
       ZZZ       1.8667
    Hexadecapole Moments (Debye-Ang^3)
      XXXX    -157.3989   XXXY       0.0000   XXYY     -33.7104
      XYYY      -0.0000   YYYY     -33.1397   XXXZ       0.0000
      XXYZ      -0.0000   XYYZ       0.0000   YYYZ      -0.0000
      XXZZ     -34.1451   XYZZ       0.0000   YYZZ     -13.0486
      XZZZ       0.0000   YZZZ      -0.0000   ZZZZ     -48.7070
 -----------------------------------------------------------------
 Calculating MO derivatives via CPSCF
    1     0    30    0.0454160  
    2     0    30    0.0059956  
    3     0    30    0.0003956  
    4    21     9    0.0000148  
    5    30     0    0.0000005  Converged
 Time for AOints: 0.5 s (CPU) 0.3 s (wall)
 ------------------------------------------------------------------------------
                     AOints        : Timing summary (seconds)
 ------------------------------------------------------------------------------
     job step          cpu (% of tot)      sys (% of tot)     wall (% of tot)
 ------------------------------------------------------------------------------
  AOints            0.4632E+00 ( 4.3)   0.4000E-05 ( 5.2)   0.2844E+00 ( 5.0)
 ------------------------------------------------------------------------------
   Grand Totals     0.1078E+02          0.7700E-04          0.5733E+01
 ------------------------------------------------------------------------------
 Polarizability Matrix (a.u.)
            1           2           3
    1 -31.2796709   0.0000043  -0.0000001
    2   0.0000043 -24.3198035  -0.0000000
    3  -0.0000001  -0.0000000 -23.5540801
 Calculating analytic Hessian of the SCF energy
 
 Direct stationary perturbation theory relativistic correction:
 
 rels  =       0.047337103600
 relv  =      -0.197899375262
 rel2e =       0.072104605228
 E_rel =      -0.078457666434
 
 Hessian of the SCF Energy
            1           2           3           4           5           6
    1   0.5273192   0.0000001   0.0856639  -0.0557979  -0.0000001   0.0161309
    2   0.0000001   0.5896540  -0.0000001  -0.0000001  -0.0036497  -0.0000000
    3   0.0856639  -0.0000001   0.5558598  -0.0161309   0.0000000   0.0098183
    4  -0.0557979  -0.0000001  -0.0161309   0.5273192   0.0000001  -0.0856639
    5  -0.0000001  -0.0036497   0.0000000   0.0000001   0.5896540   0.0000001
    6   0.0161309  -0.0000000   0.0098183  -0.0856639   0.0000001   0.5558598
    7  -0.0510991   0.0034899  -0.0061699   0.0055881  -0.0036082   0.0053779
    8   0.0018931  -0.2340892   0.1180081   0.0016544   0.0011580  -0.0001172
    9  -0.0037481   0.1163701  -0.1283239  -0.0041605  -0.0013375  -0.0009004
   10  -0.0510989  -0.0034887  -0.0061690   0.0055882   0.0036082   0.0053780
   11  -0.0018919  -0.2340921  -0.1180069  -0.0016545   0.0011580   0.0001172
   12  -0.0037473  -0.1163689  -0.1283210  -0.0041605   0.0013375  -0.0009004
   13  -0.2063863  -0.0000013  -0.1286231  -0.0022583  -0.0000001   0.0054882
   14  -0.0000014  -0.0535340  -0.0000011   0.0000000   0.0001073  -0.0000000
   15  -0.1394957  -0.0000011  -0.1643707   0.0033239   0.0000000  -0.0015898
   16  -0.1718550   0.0000002   0.0876731  -0.1718550   0.0000002  -0.0876731
   17   0.0000002  -0.0667123  -0.0000001   0.0000002  -0.0667123   0.0000001
   18   0.0401992  -0.0000000  -0.1412720  -0.0401992   0.0000000  -0.1412720
   19   0.0055881  -0.0036082  -0.0053779  -0.0510991   0.0034899   0.0061699
   20   0.0016544   0.0011580   0.0001172   0.0018931  -0.2340892  -0.1180081
   21   0.0041605   0.0013375  -0.0009004   0.0037481  -0.1163701  -0.1283239
   22   0.0055882   0.0036082  -0.0053780  -0.0510989  -0.0034887   0.0061690
   23  -0.0016545   0.0011580  -0.0001172  -0.0018919  -0.2340921   0.1180069
   24   0.0041605  -0.0013375  -0.0009004   0.0037473   0.1163689  -0.1283210
   25  -0.0022583  -0.0000001  -0.0054882  -0.2063863  -0.0000013   0.1286231
   26   0.0000000   0.0001073   0.0000000  -0.0000014  -0.0535340   0.0000011
   27  -0.0033239  -0.0000000  -0.0015898   0.1394957   0.0000011  -0.1643707
            7           8           9          10          11          12
    1  -0.0510991   0.0018931  -0.0037481  -0.0510989  -0.0018919  -0.0037473
    2   0.0034899  -0.2340892   0.1163701  -0.0034887  -0.2340921  -0.1163689
    3  -0.0061699   0.1180081  -0.1283239  -0.0061690  -0.1180069  -0.1283210
    4   0.0055881   0.0016544  -0.0041605   0.0055882  -0.0016545  -0.0041605
    5  -0.0036082   0.0011580  -0.0013375   0.0036082   0.0011580   0.0013375
    6   0.0053779  -0.0001172  -0.0009004   0.0053780   0.0001172  -0.0009004
    7   0.0568404   0.0030366  -0.0086359   0.0017731  -0.0014202  -0.0012197
    8   0.0030366   0.2450234  -0.1341741   0.0014204  -0.0210874   0.0155297
    9  -0.0086359  -0.1341741   0.1435718  -0.0012196  -0.0155293   0.0127373
   10   0.0017731   0.0014204  -0.0012196   0.0568404  -0.0030380  -0.0086368
   11  -0.0014202  -0.0210874  -0.0155293  -0.0030380   0.2450267   0.1341728
   12  -0.0012197   0.0155297   0.0127373  -0.0086368   0.1341728   0.1435686
   13   0.0026466   0.0006576  -0.0006899   0.0026468  -0.0006576  -0.0006898
   14   0.0215955   0.0016252   0.0178615  -0.0215957   0.0016248  -0.0178616
   15  -0.0133859  -0.0014740  -0.0102481  -0.0133856   0.0014737  -0.0102479
   16  -0.0158070  -0.0068671   0.0163111  -0.0158073   0.0068671   0.0163113
   17  -0.0252170   0.0078732   0.0173452   0.0252172   0.0078733  -0.0173453
   18   0.0263100   0.0029880  -0.0185845   0.0263097  -0.0029881  -0.0185843
   19  -0.0005998   0.0001050   0.0005400   0.0005886   0.0016505   0.0014643
   20   0.0001050  -0.0006292   0.0000861  -0.0016505  -0.0002030   0.0003432
   21  -0.0005400  -0.0000861   0.0004267  -0.0014643   0.0003432   0.0011971
   22   0.0005886  -0.0016505   0.0014643  -0.0005998  -0.0001050   0.0005401
   23   0.0016505  -0.0002030  -0.0003432  -0.0001050  -0.0006292  -0.0000861
   24  -0.0014643  -0.0003432   0.0011971  -0.0005401   0.0000861   0.0004267
   25   0.0000690  -0.0002496   0.0001385   0.0000690   0.0002496   0.0001385
   26   0.0003679   0.0003289  -0.0002789  -0.0003679   0.0003289   0.0002789
   27  -0.0002722  -0.0003314   0.0001239  -0.0002722   0.0003314   0.0001239
           13          14          15          16          17          18
    1  -0.2063863  -0.0000014  -0.1394957  -0.1718550   0.0000002   0.0401992
    2  -0.0000013  -0.0535340  -0.0000011   0.0000002  -0.0667123  -0.0000000
    3  -0.1286231  -0.0000011  -0.1643707   0.0876731  -0.0000001  -0.1412720
    4  -0.0022583   0.0000000   0.0033239  -0.1718550   0.0000002  -0.0401992
    5  -0.0000001   0.0001073   0.0000000   0.0000002  -0.0667123   0.0000000
    6   0.0054882  -0.0000000  -0.0015898  -0.0876731   0.0000001  -0.1412720
    7   0.0026466   0.0215955  -0.0133859  -0.0158070  -0.0252170   0.0263100
    8   0.0006576   0.0016252  -0.0014740  -0.0068671   0.0078732   0.0029880
    9  -0.0006899   0.0178615  -0.0102481   0.0163111   0.0173452  -0.0185845
   10   0.0026468  -0.0215957  -0.0133856  -0.0158073   0.0252172   0.0263097
   11  -0.0006576   0.0016248   0.0014737   0.0068671   0.0078733  -0.0029881
   12  -0.0006898  -0.0178616  -0.0102479   0.0163113  -0.0173453  -0.0185843
   13   0.2363520   0.0000015   0.1396045  -0.0315902  -0.0000001  -0.0137870
   14   0.0000015   0.0489289   0.0000012   0.0000000   0.0000254   0.0000000
   15   0.1396045   0.0000012   0.1694167   0.0217683   0.0000001   0.0159797
   16  -0.0315902   0.0000000   0.0217683   0.4701189  -0.0000004   0.0000000
   17  -0.0000001   0.0000254   0.0000001  -0.0000004   0.1018807  -0.0000000
   18  -0.0137870   0.0000000   0.0159797   0.0000000  -0.0000000   0.3249222
   19   0.0000690   0.0003679   0.0002722  -0.0158070  -0.0252170  -0.0263100
   20  -0.0002496   0.0003289   0.0003314  -0.0068671   0.0078732  -0.0029880
   21  -0.0001385   0.0002789   0.0001239  -0.0163111  -0.0173452  -0.0185845
   22   0.0000690  -0.0003679   0.0002722  -0.0158073   0.0252172  -0.0263097
   23   0.0002496   0.0003289  -0.0003314   0.0068671   0.0078733   0.0029881
   24  -0.0001385  -0.0002789   0.0001239  -0.0163113   0.0173453  -0.0185843
   25  -0.0015488   0.0000000   0.0010260  -0.0315902  -0.0000001   0.0137870
   26   0.0000000   0.0005646  -0.0000000   0.0000000   0.0000254  -0.0000000
   27  -0.0010260   0.0000000   0.0008122  -0.0217683  -0.0000001   0.0159797
           19          20          21          22          23          24
    1   0.0055881   0.0016544   0.0041605   0.0055882  -0.0016545   0.0041605
    2  -0.0036082   0.0011580   0.0013375   0.0036082   0.0011580  -0.0013375
    3  -0.0053779   0.0001172  -0.0009004  -0.0053780  -0.0001172  -0.0009004
    4  -0.0510991   0.0018931   0.0037481  -0.0510989  -0.0018919   0.0037473
    5   0.0034899  -0.2340892  -0.1163701  -0.0034887  -0.2340921   0.1163689
    6   0.0061699  -0.1180081  -0.1283239   0.0061690   0.1180069  -0.1283210
    7  -0.0005998   0.0001050  -0.0005400   0.0005886   0.0016505  -0.0014643
    8   0.0001050  -0.0006292  -0.0000861  -0.0016505  -0.0002030  -0.0003432
    9   0.0005400   0.0000861   0.0004267   0.0014643  -0.0003432   0.0011971
   10   0.0005886  -0.0016505  -0.0014643  -0.0005998  -0.0001050  -0.0005401
   11   0.0016505  -0.0002030   0.0003432  -0.0001050  -0.0006292   0.0000861
   12   0.0014643   0.0003432   0.0011971   0.0005401  -0.0000861   0.0004267
   13   0.0000690  -0.0002496  -0.0001385   0.0000690   0.0002496  -0.0001385
   14   0.0003679   0.0003289   0.0002789  -0.0003679   0.0003289  -0.0002789
   15   0.0002722   0.0003314   0.0001239   0.0002722  -0.0003314   0.0001239
   16  -0.0158070  -0.0068671  -0.0163111  -0.0158073   0.0068671  -0.0163113
   17  -0.0252170   0.0078732  -0.0173452   0.0252172   0.0078733   0.0173453
   18  -0.0263100  -0.0029880  -0.0185845  -0.0263097   0.0029881  -0.0185843
   19   0.0568404   0.0030366   0.0086359   0.0017731  -0.0014202   0.0012197
   20   0.0030366   0.2450234   0.1341741   0.0014204  -0.0210874  -0.0155297
   21   0.0086359   0.1341741   0.1435718   0.0012196   0.0155293   0.0127373
   22   0.0017731   0.0014204   0.0012196   0.0568404  -0.0030380   0.0086368
   23  -0.0014202  -0.0210874   0.0155293  -0.0030380   0.2450267  -0.1341728
   24   0.0012197  -0.0155297   0.0127373   0.0086368  -0.1341728   0.1435686
   25   0.0026466   0.0006576   0.0006899   0.0026468  -0.0006576   0.0006898
   26   0.0215955   0.0016252  -0.0178615  -0.0215957   0.0016248   0.0178616
   27   0.0133859   0.0014740  -0.0102481   0.0133856  -0.0014737  -0.0102479
           25          26          27
    1  -0.0022583   0.0000000  -0.0033239
    2  -0.0000001   0.0001073  -0.0000000
    3  -0.0054882   0.0000000  -0.0015898
    4  -0.2063863  -0.0000014   0.1394957
    5  -0.0000013  -0.0535340   0.0000011
    6   0.1286231   0.0000011  -0.1643707
    7   0.0000690   0.0003679  -0.0002722
    8  -0.0002496   0.0003289  -0.0003314
    9   0.0001385  -0.0002789   0.0001239
   10   0.0000690  -0.0003679  -0.0002722
   11   0.0002496   0.0003289   0.0003314
   12   0.0001385   0.0002789   0.0001239
   13  -0.0015488   0.0000000  -0.0010260
   14   0.0000000   0.0005646   0.0000000
   15   0.0010260  -0.0000000   0.0008122
   16  -0.0315902   0.0000000  -0.0217683
   17  -0.0000001   0.0000254  -0.0000001
   18   0.0137870  -0.0000000   0.0159797
   19   0.0026466   0.0215955   0.0133859
   20   0.0006576   0.0016252   0.0014740
   21   0.0006899  -0.0178615  -0.0102481
   22   0.0026468  -0.0215957   0.0133856
   23  -0.0006576   0.0016248  -0.0014737
   24   0.0006898   0.0178616  -0.0102479
   25   0.2363520   0.0000015  -0.1396045
   26   0.0000015   0.0489289  -0.0000012
   27  -0.1396045  -0.0000012   0.1694167
 **********************************************************************
 **                                                                  **
 **                       VIBRATIONAL ANALYSIS                       **
 **                       --------------------                       **
 **                                                                  **
 **        VIBRATIONAL FREQUENCIES (CM**-1) AND NORMAL MODES         **
 **     FORCE CONSTANTS (mDYN/ANGSTROM) AND REDUCED MASSES (AMU)     **
 **                  INFRARED INTENSITIES (KM/MOL)                   **
 **                                                                  **
 **********************************************************************
 

 Mode:                 1                      2                      3
 Frequency:       111.59                 238.62                 412.84
 Force Cnst:      0.0076                 0.0432                 0.2238
 Red. Mass:       1.0315                 1.2888                 2.2287
 IR Active:          YES                    YES                    YES
 IR Intens:        0.000                  6.022                  2.657
 Raman Active:       YES                    YES                    YES
               X      Y      Z        X      Y      Z        X      Y      Z
 C          0.000 -0.033  0.000   -0.000 -0.053  0.000   -0.170 -0.000 -0.072
 C         -0.000  0.033  0.000   -0.000 -0.053 -0.000    0.170  0.000 -0.072
 H         -0.171 -0.243 -0.309    0.290  0.074  0.199   -0.391 -0.008 -0.100
 H          0.171 -0.243  0.309   -0.290  0.074 -0.199   -0.391  0.008 -0.100
 H         -0.000  0.363 -0.000    0.000 -0.481  0.000    0.040  0.000 -0.351
 O         -0.000 -0.000 -0.000    0.000  0.121  0.000   -0.000 -0.000  0.178
 H          0.171  0.243 -0.309    0.290  0.074 -0.199    0.391  0.008 -0.100
 H         -0.171  0.243  0.309   -0.290  0.074  0.199    0.391 -0.008 -0.100
 H          0.000 -0.363 -0.000    0.000 -0.481 -0.000   -0.040 -0.000 -0.351
 TransDip  -0.000  0.000 -0.000    0.000 -0.079  0.000   -0.000  0.000 -0.052

 Mode:                 4                      5                      6
 Frequency:       927.17                1117.04                1163.02
 Force Cnst:      2.0942                 1.4700                 0.9634
 Red. Mass:       4.1347                 1.9995                 1.2089
 IR Active:          YES                    YES                    YES
 IR Intens:       33.566                 53.144                  0.000
 Raman Active:       YES                    YES                    YES
               X      Y      Z        X      Y      Z        X      Y      Z
 C          0.285  0.000 -0.124   -0.071 -0.000  0.156    0.000 -0.096  0.000
 C         -0.285 -0.000 -0.124   -0.071 -0.000 -0.156   -0.000  0.096  0.000
 H          0.076 -0.005 -0.114   -0.341 -0.052  0.044   -0.360  0.115  0.287
 H          0.076  0.005 -0.114   -0.341  0.052  0.044    0.360  0.115 -0.287
 H          0.459 -0.000 -0.349    0.322  0.000 -0.337   -0.000  0.202  0.000
 O         -0.000 -0.000  0.259    0.152  0.000  0.000    0.000 -0.000 -0.000
 H         -0.076  0.005 -0.114   -0.341 -0.052 -0.044    0.360 -0.115  0.287
 H         -0.076 -0.005 -0.114   -0.341  0.052 -0.044   -0.360 -0.115 -0.287
 H         -0.459  0.000 -0.349    0.322  0.000  0.337    0.000 -0.202  0.000
 TransDip   0.000  0.000 -0.186   -0.233  0.000  0.000   -0.000  0.000 -0.000

 Mode:                 7                      8                      9
 Frequency:      1167.73                1200.66                1266.59
 Force Cnst:      1.9748                 1.1429                 1.5216
 Red. Mass:       2.4580                 1.3456                 1.6098
 IR Active:          YES                    YES                    YES
 IR Intens:       85.936                  5.685                  4.766
 Raman Active:       YES                    YES                    YES
               X      Y      Z        X      Y      Z        X      Y      Z
 C         -0.168 -0.000  0.005    0.000 -0.098 -0.000   -0.051 -0.000 -0.118
 C         -0.168 -0.000 -0.005    0.000 -0.098  0.000    0.051  0.000 -0.118
 H          0.278  0.030  0.043   -0.346  0.131  0.300    0.308  0.085  0.040
 H          0.278 -0.030  0.043    0.346  0.131 -0.300    0.308 -0.085  0.040
 H         -0.414  0.000  0.336    0.000  0.181 -0.000   -0.400 -0.000  0.330
 O          0.235  0.000  0.000   -0.000  0.092  0.000   -0.000 -0.000  0.126
 H          0.278  0.030 -0.043   -0.346  0.131 -0.300   -0.308 -0.085  0.040
 H          0.278 -0.030 -0.043    0.346  0.131  0.300   -0.308  0.085  0.040
 H         -0.414  0.000 -0.336    0.000  0.181  0.000    0.400  0.000  0.330
 TransDip  -0.297 -0.000 -0.000    0.000 -0.076 -0.000    0.000 -0.000 -0.070

 Mode:                10                     11                     12
 Frequency:      1467.26                1506.51                1509.01
 Force Cnst:      1.4195                 1.5443                 1.4098
 Red. Mass:       1.1191                 1.1549                 1.0508
 IR Active:          YES                    YES                    YES
 IR Intens:       12.230                  0.000                  8.140
 Raman Active:       YES                    YES                    YES
               X      Y      Z        X      Y      Z        X      Y      Z
 C         -0.052  0.000  0.035    0.079 -0.000 -0.023    0.025  0.000  0.036
 C         -0.052  0.000 -0.035   -0.079  0.000 -0.023    0.025  0.000 -0.036
 H          0.355 -0.134 -0.159   -0.353 -0.014 -0.070   -0.107 -0.261 -0.364
 H          0.355  0.134 -0.159   -0.353  0.014 -0.070   -0.107  0.261 -0.364
 H          0.234 -0.000 -0.320   -0.269  0.000  0.402   -0.146 -0.000  0.229
 O         -0.041  0.000 -0.000    0.000 -0.000  0.001    0.008  0.000 -0.000
 H          0.355 -0.134  0.159    0.353  0.014 -0.070   -0.107 -0.261  0.364
 H          0.355  0.134  0.159    0.353 -0.014 -0.070   -0.107  0.261  0.364
 H          0.234 -0.000  0.320    0.269 -0.000  0.402   -0.146 -0.000 -0.229
 TransDip  -0.112  0.000  0.000   -0.000  0.000 -0.000   -0.091 -0.000  0.000

 Mode:                13                     14                     15
 Frequency:      1513.09                1524.66                1526.52
 Force Cnst:      1.4132                 1.4381                 1.4585
 Red. Mass:       1.0477                 1.0500                 1.0623
 IR Active:          YES                    YES                    YES
 IR Intens:        0.000                 10.336                  0.563
 Raman Active:       YES                    YES                    YES
               X      Y      Z        X      Y      Z        X      Y      Z
 C         -0.000 -0.043  0.000    0.000 -0.043  0.000    0.015 -0.000 -0.043
 C          0.000  0.043  0.000    0.000 -0.043 -0.000   -0.015  0.000 -0.043
 H          0.318  0.048  0.115    0.313  0.043  0.118   -0.108  0.291  0.386
 H         -0.318  0.048 -0.115   -0.313  0.043 -0.118   -0.108 -0.291  0.386
 H          0.000  0.514 -0.000   -0.000  0.520 -0.000    0.048  0.000 -0.065
 O         -0.000 -0.000  0.000    0.000 -0.013  0.000    0.000 -0.000 -0.025
 H         -0.318 -0.048  0.115    0.313  0.043 -0.118    0.108 -0.291  0.386
 H          0.318 -0.048 -0.115   -0.313  0.043  0.118    0.108  0.291  0.386
 H         -0.000 -0.514 -0.000   -0.000  0.520  0.000   -0.048 -0.000 -0.065
 TransDip   0.000  0.000 -0.000   -0.000  0.103 -0.000   -0.000  0.000  0.024

 Mode:                16                     17                     18
 Frequency:      3039.96                3052.88                3110.04
 Force Cnst:      5.6026                 5.6629                 6.2996
 Red. Mass:       1.0290                 1.0313                 1.1054
 IR Active:          YES                    YES                    YES
 IR Intens:       64.106                 43.591                143.989
 Raman Active:       YES                    YES                    YES
               X      Y      Z        X      Y      Z        X      Y      Z
 C          0.016 -0.000 -0.026    0.019 -0.000 -0.026    0.000 -0.067  0.000
 C          0.016 -0.000  0.026   -0.019  0.000 -0.026    0.000 -0.067 -0.000
 H         -0.006 -0.382  0.255   -0.016 -0.379  0.257    0.011  0.405 -0.289
 H         -0.006  0.382  0.255   -0.016  0.379  0.257   -0.011  0.405  0.289
 H         -0.215 -0.000 -0.175   -0.221 -0.000 -0.175    0.000 -0.015  0.000
 O          0.004  0.000  0.000    0.000  0.000 -0.003    0.000 -0.000 -0.000
 H         -0.006 -0.382 -0.255    0.016  0.379  0.257    0.011  0.405  0.289
 H         -0.006  0.382 -0.255    0.016 -0.379  0.257   -0.011  0.405 -0.289
 H         -0.215 -0.000  0.175    0.221  0.000 -0.175    0.000 -0.015 -0.000
 TransDip   0.256 -0.000 -0.000    0.000  0.000 -0.211    0.000 -0.384 -0.000

 Mode:                19                     20                     21
 Frequency:      3113.89                3141.57                3143.20
 Force Cnst:      6.3299                 6.4133                 6.4235
 Red. Mass:       1.1080                 1.1029                 1.1035
 IR Active:          YES                    YES                    YES
 IR Intens:        0.000                 24.776                 43.621
 Raman Active:       YES                    YES                    YES
               X      Y      Z        X      Y      Z        X      Y      Z
 C         -0.000  0.067 -0.000   -0.042 -0.000 -0.051   -0.042 -0.000 -0.051
 C          0.000 -0.067 -0.000   -0.042 -0.000  0.051    0.042  0.000 -0.051
 H         -0.003 -0.406  0.288   -0.008 -0.161  0.097   -0.012 -0.165  0.099
 H          0.003 -0.406 -0.288   -0.008  0.161  0.097   -0.012  0.165  0.099
 H         -0.000  0.017 -0.000    0.510  0.000  0.405    0.507  0.000  0.405
 O         -0.000 -0.000  0.000    0.000  0.000  0.000    0.000 -0.000 -0.000
 H          0.003  0.406  0.288   -0.008 -0.161 -0.097    0.012  0.165  0.099
 H         -0.003  0.406 -0.288   -0.008  0.161 -0.097    0.012 -0.165  0.099
 H          0.000 -0.017 -0.000    0.510  0.000 -0.405   -0.507 -0.000  0.405
 TransDip  -0.000 -0.000 -0.000   -0.159 -0.000  0.000   -0.000 -0.000 -0.212

 STANDARD THERMODYNAMIC QUANTITIES AT   298.15 K  AND     1.00 ATM

   This Molecule has  0 Imaginary Frequencies
   Zero point vibrational energy:       50.398 kcal/mol

   Atom    1 Element C  Has Mass   12.00000
   Atom    2 Element C  Has Mass   12.00000
   Atom    3 Element H  Has Mass    1.00783
   Atom    4 Element H  Has Mass    1.00783
   Atom    5 Element H  Has Mass    1.00783
   Atom    6 Element O  Has Mass   15.99491
   Atom    7 Element H  Has Mass    1.00783
   Atom    8 Element H  Has Mass    1.00783
   Atom    9 Element H  Has Mass    1.00783
   Molecular Mass:    46.041890 amu
   Principal axes and moments of inertia in amu*Bohr^2:
                             1           2           3
    Eigenvalues --       46.44746   181.16843   204.43704
          X               1.00000     0.00000    -0.00000
          Y               0.00000    -0.00000     1.00000
          Z              -0.00000     1.00000     0.00000
   Rotational Symmetry Number is   2
   The Molecule is an Asymmetric Top
   Translational Enthalpy:        0.889 kcal/mol
   Rotational Enthalpy:           0.889 kcal/mol
   Vibrational Enthalpy:         51.453 kcal/mol
   gas constant (RT):             0.592 kcal/mol
   Translational Entropy:        37.406  cal/mol.K
   Rotational Entropy:           20.691  cal/mol.K
   Vibrational Entropy:           6.391  cal/mol.K

   Total Enthalpy:               53.823 kcal/mol
   Total Entropy:                64.488  cal/mol.K
Archival summary:
1\1\node019\FREQ\ProcedureUnspecified\6-31G*\126\guest94\MonMar918:26:012020MonMar918:26:012020\0\\#,FREQ,ProcedureUnspecified,6-31G*,\\0,1\O\C,1,1.42116\H,2,1.09329,1,108.378\H,2,1.09431,1,110.491,3,118.92,0\H,2,1.09431,1,110.491,3,-118.92,0\C,1,1.42116,2,111.547,3,180,0\H,6,1.09329,1,108.378,2,180,0\H,6,1.09431,1,110.491,2,-61.0803,0\H,6,1.09431,1,110.491,2,61.0795,0\\\@

 Total job time:  14.70s(wall), 33.87s(cpu) 
 Mon Mar  9 18:26:01 2020

        *************************************************************
        *                                                           *
        *  Thank you very much for using Q-Chem.  Have a nice day.  *
        *                                                           *
        *************************************************************


