                  Welcome to Q-Chem
     A Quantum Leap Into The Future Of Chemistry


 Q-Chem 5.2 (devel), Q-Chem, Inc., Pleasanton, CA (2019)

 Yihan Shao,  Zhengting Gan,  E. Epifanovsky,  A. T. B. Gilbert,  M. Wormit,  
 J. Kussmann,  A. W. Lange,  A. Behn,  Jia Deng,  Xintian Feng,  D. Ghosh,  
 M. Goldey,  P. R. Horn,  L. D. Jacobson,  I. Kaliman,  T. Kus,  A. Landau,  
 Jie Liu,  E. I. Proynov,  R. M. Richard,  R. P. Steele,  E. J. Sundstrom,  
 H. L. Woodcock III,  P. M. Zimmerman,  D. Zuev,  B. Albrecht,  E. Alguire,  
 S. A. Baeppler,  D. Barton,  Z. Benda,  Y. A. Bernard,  E. J. Berquist,  
 K. B. Bravaya,  H. Burton,  D. Casanova,  Chun-Min Chang,  Yunqing Chen,  
 A. Chien,  K. D. Closser,  M. P. Coons,  S. Coriani,  S. Dasgupta,  
 A. L. Dempwolff,  M. Diedenhofen,  Hainam Do,  R. G. Edgar,  Po-Tung Fang,  
 S. Faraji,  S. Fatehi,  Qingguo Feng,  K. D. Fenk,  J. Fosso-Tande,  
 J. Gayvert,  Qinghui Ge,  A. Ghysels,  G. Gidofalvi,  J. Gomes,  
 J. Gonthier,  A. Gunina,  D. Hait,  M. W. D. Hanson-Heine,  
 P. H. P. Harbach,  A. W. Hauser,  M. F. Herbst,  J. E. Herr,  
 E. G. Hohenstein,  Z. C. Holden,  Kerwin Hui,  B. C. Huynh,  T.-C. Jagau,  
 Hyunjun Ji,  B. Kaduk,  K. Khistyaev,  Jaehoon Kim,  P. Klunzinger,  K. Koh,  
 D. Kosenkov,  L. Koulias,  T. Kowalczyk,  C. M. Krauter,  A. Kunitsa,  
 Ka Un Lao,  A. Laurent,  K. V. Lawler,  Joonho Lee,  D. Lefrancois,  
 S. Lehtola,  D. S. Levine,  Yi-Pei Li,  You-Sheng Lin,  Fenglai Liu,  
 E. Livshits,  A. Luenser,  P. Manohar,  E. Mansoor,  S. F. Manzer,  
 Shan-Ping Mao,  Yuezhi Mao,  N. Mardirossian,  A. V. Marenich,  
 T. Markovich,  L. A. Martinez-Martinez,  S. A. Maurer,  N. J. Mayhall,  
 S. C. McKenzie,  J.-M. Mewes,  P. Morgante,  A. F. Morrison,  
 J. W. Mullinax,  K. Nanda,  T. S. Nguyen-Beck,  R. Olivares-Amaya,  
 J. A. Parkhill,  Zheng Pei,  T. M. Perrine,  F. Plasser,  P. Pokhilko,  
 S. Prager,  A. Prociuk,  E. Ramos,  D. R. Rehn,  F. Rob,  M. Scheurer,  
 M. Schneider,  N. Sergueev,  S. M. Sharada,  S. Sharma,  D. W. Small,  
 T. Stauch,  T. Stein,  Yu-Chuan Su,  A. J. W. Thom,  A. Tkatchenko,  
 T. Tsuchimochi,  N. M. Tubman,  L. Vogt,  M. L. Vidal,  O. Vydrov,  
 M. A. Watson,  J. Wenzel,  M. de Wergifosse,  T. A. Wesolowski,  A. White,  
 J. Witte,  A. Yamada,  Jun Yang,  K. Yao,  S. Yeganeh,  S. R. Yost,  
 Zhi-Qiang You,  A. Zech,  Igor Ying Zhang,  Xing Zhang,  Yan Zhao,  
 Ying Zhu,  B. R. Brooks,  G. K. L. Chan,  C. J. Cramer,  M. S. Gordon,  
 W. J. Hehre,  A. Klamt,  M. W. Schmidt,  C. D. Sherrill,  D. G. Truhlar,  
 A. Aspuru-Guzik,  R. Baer,  A. T. Bell,  N. A. Besley,  Jeng-Da Chai,  
 A. E. DePrince, III,  R. A. DiStasio Jr.,  A. Dreuw,  B. D. Dunietz,  
 T. R. Furlani,  Chao-Ping Hsu,  Yousung Jung,  Jing Kong,  D. S. Lambrecht,  
 WanZhen Liang,  C. Ochsenfeld,  V. A. Rassolov,  L. V. Slipchenko,  
 J. E. Subotnik,  T. Van Voorhis,  J. M. Herbert,  A. I. Krylov,  
 P. M. W. Gill,  M. Head-Gordon

 Contributors to earlier versions of Q-Chem not listed above: 
 R. D. Adamson,  B. Austin,  J. Baker,  G. J. O. Beran,  K. Brandhorst,  
 S. T. Brown,  E. F. C. Byrd,  A. K. Chakraborty,  C.-L. Cheng,  
 Siu Hung Chien,  D. M. Chipman,  D. L. Crittenden,  H. Dachsel,  
 R. J. Doerksen,  A. D. Dutoi,  L. Fusti-Molnar,  W. A. Goddard III,  
 A. Golubeva-Zadorozhnaya,  S. R. Gwaltney,  G. Hawkins,  A. Heyden,  
 S. Hirata,  G. Kedziora,  F. J. Keil,  C. Kelley,  Jihan Kim,  R. A. King,  
 R. Z. Khaliullin,  P. P. Korambath,  W. Kurlancheek,  A. M. Lee,  M. S. Lee,  
 S. V. Levchenko,  Ching Yeh Lin,  D. Liotard,  R. C. Lochan,  I. Lotan,  
 P. E. Maslen,  N. Nair,  D. P. O'Neill,  D. Neuhauser,  E. Neuscamman,  
 C. M. Oana,  R. Olson,  B. Peters,  R. Peverati,  P. A. Pieniazek,  
 Y. M. Rhee,  J. Ritchie,  M. A. Rohrdanz,  E. Rosta,  N. J. Russ,  
 H. F. Schaefer III,  N. E. Schultz,  N. Shenvi,  A. C. Simmonett,  A. Sodt,  
 D. Stuck,  K. S. Thanthiriwatte,  V. Vanovschi,  Tao Wang,  A. Warshel,  
 C. F. Williams,  Q. Wu,  X. Xu,  W. Zhang

 Please cite Q-Chem as follows:
 Y. Shao et al., Mol. Phys. 113, 184-215 (2015)
 DOI: 10.1080/00268976.2014.952696

 Q-Chem 5.2.1 for Intel X86 EM64T Linux

 Parts of Q-Chem use Armadillo 8.300.2 (Tropical Shenanigans).
 http://arma.sourceforge.net/

 Q-Chem begins on Sun Mar 22 17:01:46 2020  

Host: node018
0

     Scratch files written to /tmp/ypli/106201.h81/qchem9570//
NAlpha2: 26
NElect   26
Mult     1

Checking the input file for inconsistencies... 	...done.

--------------------------------------------------------------
User input:
--------------------------------------------------------------
$rem
jobtype = freq
exchange = b3lyp
basis = 6-31g*
$end

$molecule
0 1
C      0.78001602   -0.36398086    0.58725328
C     -0.05783806    0.17704444   -0.29470200
H      1.85362982   -0.30129817    0.45199056
H      0.26253863    0.70323350   -1.18454706
H     -0.15801813    2.24945846    1.88325462
O     -1.41141836    0.10523759   -0.13626285
H     -1.83049772    0.56096628   -0.88740413
H     -0.88272159    2.16288696    2.00536228
H      0.40356967   -0.88120278    1.46367221
$end
--------------------------------------------------------------
 ----------------------------------------------------------------
             Standard Nuclear Orientation (Angstroms)
    I     Atom           X                Y                Z
 ----------------------------------------------------------------
    1      C      -1.2331054172     0.1364774197     0.1961134608
    2      C      -0.0483020272     0.3540868869    -0.3708433255
    3      H      -2.1544756611     0.2925462236    -0.3530596601
    4      H       0.0774102672     0.6926223837    -1.3911033500
    5      H      -0.1723984700    -2.6477108063    -0.5199796290
    6      O       1.1190381286     0.1614804242     0.3093467419
    7      H       1.8578491664     0.3769245075    -0.2866997905
    8      H       0.4287891534    -2.7464452957    -0.0999499250
    9      H      -1.3010348182    -0.2031662463     1.2243976075
 ----------------------------------------------------------------
 Molecular Point Group                 C1    NOp =  1
 Largest Abelian Subgroup              C1    NOp =  1
 Nuclear Repulsion Energy =          78.85409852 hartrees
 There are       13 alpha and       13 beta electrons
 Requested basis set is 6-31G(d)
 There are 24 shells and 57 basis functions

 Total QAlloc Memory Limit   2000 MB
 Mega-Array Size       188 MB
 MEM_STATIC part       192 MB

                       Distance Matrix (Angstroms)
             C (  1)   C (  2)   H (  3)   H (  4)   H (  5)   O (  6)
   C (  2)  1.331373
   H (  3)  1.083915  2.107148
   H (  4)  2.132136  1.082285  2.493774
   H (  5)  3.064244  3.008061  3.549874  3.461082
   O (  6)  2.355000  1.364712  3.342432  2.063645  3.201116
   H (  7)  3.137662  1.908144  4.013761  2.118805  3.650307  0.973411
   H (  8)  3.340777  3.148698  3.996597  3.690221  0.740000  3.016621
   H (  9)  1.085053  2.103489  1.860770  3.089238  3.208188  2.612860
             H (  7)   H (  8)
   H (  8)  3.439844
   H (  9)  3.549432  3.348799
 
 A cutoff of  1.0D-11 yielded    299 shell pairs
 There are      1733 function pairs
 Smallest overlap matrix eigenvalue = 4.94E-03
 Guess from superposition of atomic densities
 Warning:  Energy on first SCF cycle will be non-variational
 SAD guess density has 26.000000 electrons

 -----------------------------------------------------------------------
  General SCF calculation program by
  Eric Jon Sundstrom, Paul Horn, Yuezhi Mao, Dmitri Zuev, Alec White,
  David Stuck, Shaama M.S., Shane Yost, Joonho Lee, David Small,
  Daniel Levine, Susi Lehtola, Hugh Burton, Evgeny Epifanovsky,
  Bang C. Huynh
 -----------------------------------------------------------------------
 Exchange:     0.2000 Hartree-Fock + 0.0800 Slater + 0.7200 B88
 Correlation:  0.1900 VWN1RPA + 0.8100 LYP
 Using SG-1 standard quadrature grid
 using 2 threads for integral computing
 -------------------------------------------------------
 OpenMP Integral computing Module                
 Release: version 2.0, May 2017, Q-Chem Inc. Pleasanton 
 -------------------------------------------------------
 A restricted SCF calculation will be
 performed using DIIS
 SCF converges when DIIS error is below 1.0e-08
 ---------------------------------------
  Cycle       Energy         DIIS error
 ---------------------------------------
    1    -155.1888848337      9.88e-02  
    2    -154.8923340398      1.48e-02  
    3    -154.8641560899      1.73e-02  
    4    -154.9742595945      2.47e-03  
    5    -154.9765644687      7.39e-04  
    6    -154.9767488243      3.08e-04  
    7    -154.9767802438      6.91e-05  
    8    -154.9767820045      4.63e-06  
    9    -154.9767820122      1.08e-06  
   10    -154.9767820127      1.72e-07  
   11    -154.9767820127      2.76e-08  
   12    -154.9767820128      3.00e-09  Convergence criterion met
 ---------------------------------------
 SCF time:   CPU 4.43s  wall 3.00s 
 SCF   energy in the final basis set =     -154.9767820128
 Total energy in the final basis set =     -154.9767820128
 
 --------------------------------------------------------------
 
                    Orbital Energies (a.u.)
 --------------------------------------------------------------
 
 Alpha MOs
 -- Occupied --
-19.1751 -10.2379 -10.1620  -1.0525  -0.7447  -0.5813  -0.5442  -0.4363
 -0.4220  -0.3983  -0.3775  -0.3505  -0.2222
 -- Virtual --
  0.0434   0.0566   0.1163   0.1453   0.1570   0.1805   0.2949   0.3451
  0.5085   0.5221   0.5870   0.6131   0.6381   0.6870   0.7331   0.7834
  0.8678   0.8763   0.9406   0.9420   0.9489   1.0979   1.1488   1.1997
  1.2094   1.4004   1.4647   1.4790   1.7162   1.7739   1.8224   1.9223
  1.9696   2.1976   2.2609   2.2748   2.4471   2.5098   2.6817   2.8089
  2.9460   3.7468   4.1248   4.3051
 --------------------------------------------------------------
 
          Ground-State Mulliken Net Atomic Charges

     Atom                 Charge (a.u.)
  ----------------------------------------
      1 C                    -0.375676
      2 C                     0.138015
      3 H                     0.139045
      4 H                     0.127703
      5 H                    -0.003139
      6 O                    -0.575568
      7 H                     0.407677
      8 H                    -0.004383
      9 H                     0.146326
  ----------------------------------------
  Sum of atomic charges =     0.000000

 -----------------------------------------------------------------
                    Cartesian Multipole Moments
 -----------------------------------------------------------------
    Charge (ESU x 10^10)
                -0.0000
    Dipole Moment (Debye)
         X       0.9418      Y       0.6452      Z      -1.6438
       Tot       2.0013
    Quadrupole Moments (Debye-Ang)
        XX     -16.2939     XY       1.1143     YY     -21.8185
        XZ      -2.1147     YZ      -1.3869     ZZ     -19.3349
    Octopole Moments (Debye-Ang^2)
       XXX      12.8751    XXY       2.8341    XYY       3.8117
       YYY       3.7100    XXZ      -3.4182    XYZ      -0.4631
       YYZ      -0.1043    XZZ       1.2423    YZZ       1.2460
       ZZZ       0.4132
    Hexadecapole Moments (Debye-Ang^3)
      XXXX    -119.2874   XXXY       5.0675   XXYY     -42.6539
      XYYY       2.1687   YYYY    -118.7429   XXXZ      -2.4367
      XXYZ      -2.4227   XYYZ       1.4006   YYYZ      -2.3500
      XXZZ     -30.5806   XYZZ       1.3161   YYZZ     -25.7799
      XZZZ      -1.0232   YZZZ      -2.6200   ZZZZ     -41.6413
 -----------------------------------------------------------------
 Calculating MO derivatives via CPSCF
    1     0    30    0.0728246  
    2     0    30    0.0063186  
    3     6    24    0.0003354  
    4    19    11    0.0000133  
    5    30     0    0.0000004  Converged
 Time for AOints: 0.4 s (CPU) 0.2 s (wall)
 ------------------------------------------------------------------------------
                     AOints        : Timing summary (seconds)
 ------------------------------------------------------------------------------
     job step          cpu (% of tot)      sys (% of tot)     wall (% of tot)
 ------------------------------------------------------------------------------
  AOints            0.3724E+00 ( 4.2)   0.4000E-05 ( 9.3)   0.2079E+00 ( 4.6)
 ------------------------------------------------------------------------------
   Grand Totals     0.8852E+01          0.4300E-04          0.4537E+01
 ------------------------------------------------------------------------------
 Polarizability Matrix (a.u.)
            1           2           3
    1 -40.3759095  -1.2231425   1.7146884
    2  -1.2231425 -14.2644509   4.3623961
    3   1.7146884   4.3623961 -24.7471099
 Calculating analytic Hessian of the SCF energy
 
 Direct stationary perturbation theory relativistic correction:
 
 rels  =       0.047361725125
 relv  =      -0.196550048426
 rel2e =       0.070694831767
 E_rel =      -0.078493491533
 
 Hessian of the SCF Energy
            1           2           3           4           5           6
    1   0.8402799   0.0418893  -0.0677849  -0.4562646  -0.0692218   0.1789244
    2   0.0418893   0.1452969  -0.1843644  -0.0714507  -0.0678438   0.0567761
    3  -0.0677849  -0.1843644   0.6375603   0.1839110   0.0563960  -0.2062231
    4  -0.4562646  -0.0714507   0.1839110   0.8434365   0.0630810  -0.1374708
    5  -0.0692218  -0.0678438   0.0563960   0.0630810   0.1901332  -0.1835392
    6   0.1789244   0.0567761  -0.2062231  -0.1374708  -0.1835392   0.6753127
    7  -0.2671425   0.0349331  -0.1258725  -0.0168706   0.0057807  -0.0185804
    8   0.0367005  -0.0316749   0.0323819  -0.0049639  -0.0021878  -0.0046673
    9  -0.1308844   0.0323324  -0.1310937   0.0133817  -0.0038242   0.0089192
   10   0.0032406  -0.0091141   0.0273189  -0.0651634  -0.0147028   0.0430874
   11   0.0001576   0.0042975   0.0051030  -0.0132014  -0.0687370   0.0899156
   12  -0.0005286   0.0045241  -0.0076451   0.0381798   0.0897289  -0.3092239
   13  -0.0001082   0.0003360   0.0001398   0.0000269   0.0009302   0.0002388
   14   0.0010311  -0.0000023  -0.0001769  -0.0024094  -0.0006808  -0.0005055
   15   0.0003965   0.0005856  -0.0002733  -0.0006516   0.0004822   0.0000613
   16  -0.0590445   0.0055083  -0.0238233  -0.2709989   0.0347038  -0.1255495
   17  -0.0034549   0.0109445  -0.0049493   0.0166163  -0.0477863   0.0397514
   18   0.0051303  -0.0044684   0.0235683  -0.0661425   0.0409851  -0.1660563
   19  -0.0032136   0.0022569  -0.0069941  -0.0357975  -0.0105008   0.0299106
   20   0.0007597   0.0009625   0.0009001   0.0091314  -0.0047018  -0.0039085
   21  -0.0028214   0.0009469  -0.0020206  -0.0298664  -0.0055029   0.0080956
   22   0.0003911   0.0008097  -0.0001838  -0.0009833  -0.0000384  -0.0001787
   23  -0.0011054  -0.0013092   0.0002930   0.0027263  -0.0019287  -0.0000080
   24  -0.0001297  -0.0003420   0.0002134   0.0000571  -0.0003293   0.0000952
   25  -0.0581382  -0.0051685   0.0132889   0.0026150  -0.0100318   0.0296183
   26  -0.0067562  -0.0606711   0.0944167   0.0004704   0.0037330   0.0061854
   27   0.0176978   0.0940098  -0.3140864  -0.0013983   0.0056035  -0.0109809
            7           8           9          10          11          12
    1  -0.2671425   0.0367005  -0.1308844   0.0032406   0.0001576  -0.0005286
    2   0.0349331  -0.0316749   0.0323324  -0.0091141   0.0042975   0.0045241
    3  -0.1258725   0.0323819  -0.1310937   0.0273189   0.0051030  -0.0076451
    4  -0.0168706  -0.0049639   0.0133817  -0.0651634  -0.0132014   0.0381798
    5   0.0057807  -0.0021878  -0.0038242  -0.0147028  -0.0687370   0.0897289
    6  -0.0185804  -0.0046673   0.0089192   0.0430874   0.0899156  -0.3092239
    7   0.2814170  -0.0384110   0.1376354   0.0006307   0.0000522   0.0004149
    8  -0.0384110   0.0293491  -0.0326196   0.0003337  -0.0052106  -0.0019740
    9   0.1376354  -0.0326196   0.1302373  -0.0004864  -0.0019770   0.0001694
   10   0.0006307   0.0003337  -0.0004864   0.0710329   0.0118960  -0.0322451
   11   0.0000522  -0.0052106  -0.0019770   0.0118960   0.0553213  -0.1021400
   12   0.0004149  -0.0019740   0.0001694  -0.0322451  -0.1021400   0.3299333
   13  -0.0000277   0.0001638  -0.0000018   0.0000382  -0.0001734   0.0000071
   14   0.0000554  -0.0001395  -0.0000197   0.0000683  -0.0000232   0.0000441
   15  -0.0000146  -0.0000098   0.0000222   0.0000117  -0.0000057   0.0000247
   16  -0.0024407  -0.0010824   0.0027434  -0.0082197   0.0019687  -0.0071759
   17  -0.0017958   0.0075070   0.0029411   0.0115467   0.0042370   0.0070611
   18   0.0045897   0.0030335  -0.0001683  -0.0365039   0.0063821  -0.0157710
   19  -0.0010346  -0.0003913   0.0007531   0.0029934   0.0001336  -0.0002846
   20   0.0001822   0.0028114   0.0007861   0.0010803   0.0001529  -0.0003306
   21  -0.0008822   0.0007649   0.0007574  -0.0030143  -0.0004172   0.0010770
   22   0.0000066  -0.0001350  -0.0000010  -0.0000092   0.0000962  -0.0000241
   23  -0.0000237  -0.0000221  -0.0000051  -0.0001016   0.0002400  -0.0000432
   24   0.0000280  -0.0000397  -0.0000161  -0.0000096   0.0000120   0.0000013
   25   0.0054619   0.0077856  -0.0231400  -0.0045436  -0.0009296   0.0016565
   26  -0.0007730  -0.0004326   0.0023859  -0.0010064   0.0097221   0.0031296
   27   0.0026817   0.0031300  -0.0088275   0.0018414   0.0031272   0.0014343
           13          14          15          16          17          18
    1  -0.0001082   0.0010311   0.0003965  -0.0590445  -0.0034549   0.0051303
    2   0.0003360  -0.0000023   0.0005856   0.0055083   0.0109445  -0.0044684
    3   0.0001398  -0.0001769  -0.0002733  -0.0238233  -0.0049493   0.0235683
    4   0.0000269  -0.0024094  -0.0006516  -0.2709989   0.0166163  -0.0661425
    5   0.0009302  -0.0006808   0.0004822   0.0347038  -0.0477863   0.0409851
    6   0.0002388  -0.0005055   0.0000613  -0.1255495   0.0397514  -0.1660563
    7  -0.0000277   0.0000554  -0.0000146  -0.0024407  -0.0017958   0.0045897
    8   0.0001638  -0.0001395  -0.0000098  -0.0010824   0.0075070   0.0030335
    9  -0.0000018  -0.0000197   0.0000222   0.0027434   0.0029411  -0.0001683
   10   0.0000382   0.0000683   0.0000117  -0.0082197   0.0115467  -0.0365039
   11  -0.0001734  -0.0000232  -0.0000057   0.0019687   0.0042370   0.0063821
   12   0.0000071   0.0000441   0.0000247  -0.0071759   0.0070611  -0.0157710
   13   0.2539313  -0.0413616   0.1775986  -0.0005957  -0.0007166  -0.0003542
   14  -0.0413616   0.0061303  -0.0297170   0.0013932  -0.0011935   0.0005566
   15   0.1775986  -0.0297170   0.1235867   0.0001086  -0.0001823   0.0003184
   16  -0.0005957   0.0013932   0.0001086   0.6203350   0.0426664  -0.0811161
   17  -0.0007166  -0.0011935  -0.0001823   0.0426664   0.0614454  -0.1189099
   18  -0.0003542   0.0005566   0.0003184  -0.0811161  -0.1189099   0.3756789
   19   0.0000311  -0.0000156  -0.0000222  -0.2821489  -0.0651835   0.1753919
   20  -0.0000036   0.0000833  -0.0000849  -0.0848930  -0.0303496   0.0751495
   21  -0.0000994   0.0000325  -0.0000110   0.2352756   0.0767824  -0.2176086
   22  -0.2533215   0.0412891  -0.1773800   0.0006058  -0.0002517   0.0003214
   23   0.0408753  -0.0041715   0.0291307  -0.0006654   0.0009991  -0.0004259
   24  -0.1774055   0.0296860  -0.1236481   0.0001033  -0.0002112  -0.0003383
   25   0.0000256  -0.0000505  -0.0000469   0.0025078   0.0005730  -0.0013165
   26  -0.0000501  -0.0000029  -0.0001989   0.0004004  -0.0058035  -0.0023024
   27  -0.0001233   0.0000998  -0.0000809  -0.0005661  -0.0022833   0.0003768
           19          20          21          22          23          24
    1  -0.0032136   0.0007597  -0.0028214   0.0003911  -0.0011054  -0.0001297
    2   0.0022569   0.0009625   0.0009469   0.0008097  -0.0013092  -0.0003420
    3  -0.0069941   0.0009001  -0.0020206  -0.0001838   0.0002930   0.0002134
    4  -0.0357975   0.0091314  -0.0298664  -0.0009833   0.0027263   0.0000571
    5  -0.0105008  -0.0047018  -0.0055029  -0.0000384  -0.0019287  -0.0003293
    6   0.0299106  -0.0039085   0.0080956  -0.0001787  -0.0000080   0.0000952
    7  -0.0010346   0.0001822  -0.0008822   0.0000066  -0.0000237   0.0000280
    8  -0.0003913   0.0028114   0.0007649  -0.0001350  -0.0000221  -0.0000397
    9   0.0007531   0.0007861   0.0007574  -0.0000010  -0.0000051  -0.0000161
   10   0.0029934   0.0010803  -0.0030143  -0.0000092  -0.0001016  -0.0000096
   11   0.0001336   0.0001529  -0.0004172   0.0000962   0.0002400   0.0000120
   12  -0.0002846  -0.0003306   0.0010770  -0.0000241  -0.0000432   0.0000013
   13   0.0000311  -0.0000036  -0.0000994  -0.2533215   0.0408753  -0.1774055
   14  -0.0000156   0.0000833   0.0000325   0.0412891  -0.0041715   0.0296860
   15  -0.0000222  -0.0000849  -0.0000110  -0.1773800   0.0291307  -0.1236481
   16  -0.2821489  -0.0848930   0.2352756   0.0006058  -0.0006654   0.0001033
   17  -0.0651835  -0.0303496   0.0767824  -0.0002517   0.0009991  -0.0002112
   18   0.1753919   0.0751495  -0.2176086   0.0003214  -0.0004259  -0.0003383
   19   0.3186044   0.0736334  -0.1984872  -0.0000155  -0.0000794   0.0000028
   20   0.0736334   0.0320619  -0.0721896   0.0000010  -0.0000161   0.0001289
   21  -0.1984872  -0.0721896   0.2095030   0.0000991   0.0000503   0.0000224
   22  -0.0000155   0.0000010   0.0000991   0.2533759  -0.0417218   0.1773063
   23  -0.0000794  -0.0000161   0.0000503  -0.0417218   0.0060265  -0.0290362
   24   0.0000028   0.0001289   0.0000224   0.1773063  -0.0290362   0.1235200
   25   0.0005812   0.0001087  -0.0002038  -0.0000498   0.0000956   0.0000473
   26   0.0001465  -0.0010046  -0.0004674  -0.0000491   0.0001820   0.0001316
   27  -0.0002704  -0.0004508   0.0001847   0.0000409   0.0000445   0.0001502
           25          26          27
    1  -0.0581382  -0.0067562   0.0176978
    2  -0.0051685  -0.0606711   0.0940098
    3   0.0132889   0.0944167  -0.3140864
    4   0.0026150   0.0004704  -0.0013983
    5  -0.0100318   0.0037330   0.0056035
    6   0.0296183   0.0061854  -0.0109809
    7   0.0054619  -0.0007730   0.0026817
    8   0.0077856  -0.0004326   0.0031300
    9  -0.0231400   0.0023859  -0.0088275
   10  -0.0045436  -0.0010064   0.0018414
   11  -0.0009296   0.0097221   0.0031272
   12   0.0016565   0.0031296   0.0014343
   13   0.0000256  -0.0000501  -0.0001233
   14  -0.0000505  -0.0000029   0.0000998
   15  -0.0000469  -0.0001989  -0.0000809
   16   0.0025078   0.0004004  -0.0005661
   17   0.0005730  -0.0058035  -0.0022833
   18  -0.0013165  -0.0023024   0.0003768
   19   0.0005812   0.0001465  -0.0002704
   20   0.0001087  -0.0010046  -0.0004508
   21  -0.0002038  -0.0004674   0.0001847
   22  -0.0000498  -0.0000491   0.0000409
   23   0.0000956   0.0001820   0.0000445
   24   0.0000473   0.0001316   0.0001502
   25   0.0515402   0.0076175  -0.0199038
   26   0.0076175   0.0542776  -0.1032806
   27  -0.0199038  -0.1032806   0.3318297
 **********************************************************************
 **                                                                  **
 **                       VIBRATIONAL ANALYSIS                       **
 **                       --------------------                       **
 **                                                                  **
 **        VIBRATIONAL FREQUENCIES (CM**-1) AND NORMAL MODES         **
 **     FORCE CONSTANTS (mDYN/ANGSTROM) AND REDUCED MASSES (AMU)     **
 **                  INFRARED INTENSITIES (KM/MOL)                   **
 **                                                                  **
 **********************************************************************
 

 Mode:                 1                      2                      3
 Frequency:      -309.52                -131.48                 -93.37
 Force Cnst:      0.0576                 0.0105                 0.0070
 Red. Mass:       1.0199                 1.0269                 1.3662
 IR Active:          YES                    YES                    YES
 IR Intens:        2.842                  0.871                  3.350
 Raman Active:       YES                    YES                    YES
               X      Y      Z        X      Y      Z        X      Y      Z
 C          0.002 -0.016 -0.005   -0.009  0.017 -0.008    0.005 -0.076 -0.043
 C          0.005 -0.011 -0.003   -0.001 -0.006 -0.001   -0.001  0.132  0.023
 H          0.003 -0.030 -0.011   -0.001  0.031 -0.017   -0.002  0.132  0.027
 H          0.001 -0.024 -0.008    0.014 -0.022 -0.004   -0.014  0.526  0.152
 H         -0.094  0.676  0.239   -0.264 -0.027  0.535   -0.058  0.050  0.465
 O          0.001  0.022  0.004   -0.009 -0.029  0.006    0.004 -0.058 -0.041
 H          0.002  0.014  0.002   -0.002 -0.019  0.017    0.003 -0.035 -0.033
 H         -0.010 -0.660 -0.194    0.522  0.327 -0.508   -0.046  0.028  0.444
 H          0.002  0.007  0.003   -0.022  0.033 -0.004    0.018 -0.447 -0.165
 TransDip  -0.020  0.049 -0.012   -0.001  0.030 -0.001   -0.004  0.057  0.015

 Mode:                 4                      5                      6
 Frequency:       111.93                 242.23                 390.63
 Force Cnst:      0.0091                 0.0365                 0.1017
 Red. Mass:       1.2370                 1.0556                 1.1310
 IR Active:          YES                    YES                    YES
 IR Intens:        0.005                  0.004                110.602
 Raman Active:       YES                    YES                    YES
               X      Y      Z        X      Y      Z        X      Y      Z
 C         -0.033  0.082  0.014    0.010 -0.046 -0.000    0.000  0.024  0.005
 C         -0.023 -0.001  0.000    0.006 -0.044 -0.006   -0.000  0.015  0.001
 H         -0.028  0.158  0.028    0.007 -0.092 -0.008    0.003 -0.144 -0.048
 H         -0.014  0.006  0.004    0.004 -0.099 -0.025    0.001 -0.065 -0.026
 H          0.731  0.316 -0.083   -0.109  0.663 -0.069    0.005  0.013  0.061
 O         -0.029 -0.089 -0.018    0.008 -0.003  0.003    0.002 -0.082 -0.031
 H         -0.021 -0.146 -0.030    0.006 -0.010 -0.001   -0.024  0.919  0.300
 H          0.495  0.040  0.191   -0.240  0.669  0.119   -0.017 -0.014  0.086
 H         -0.046  0.080  0.013    0.017 -0.013  0.011   -0.001  0.121  0.037
 TransDip  -0.000 -0.002 -0.001   -0.002  0.000 -0.001   -0.002  0.319  0.109

 Mode:                 7                      8                      9
 Frequency:       483.82                 714.50                 832.57
 Force Cnst:      0.3051                 0.4490                 0.5770
 Red. Mass:       2.2122                 1.4926                 1.4129
 IR Active:          YES                    YES                    YES
 IR Intens:        2.734                 16.700                 59.807
 Raman Active:       YES                    YES                    YES
               X      Y      Z        X      Y      Z        X      Y      Z
 C          0.149 -0.007  0.041   -0.000  0.030  0.011    0.007 -0.165 -0.053
 C          0.008  0.063 -0.191    0.005 -0.186 -0.061   -0.001  0.077  0.024
 H         -0.120 -0.158  0.460   -0.018  0.773  0.253   -0.013  0.639  0.208
 H          0.121  0.059 -0.176   -0.006  0.242  0.080    0.002 -0.124 -0.042
 H          0.005 -0.003  0.001   -0.006  0.003 -0.007    0.002 -0.004 -0.005
 O         -0.165 -0.028  0.071   -0.002  0.056  0.019   -0.002 -0.009 -0.003
 H          0.038 -0.103  0.297   -0.007  0.290  0.097   -0.000  0.026  0.011
 H          0.008 -0.011 -0.005   -0.003  0.019 -0.008   -0.007  0.004  0.009
 H          0.704 -0.012  0.079    0.010 -0.352 -0.115   -0.020  0.666  0.220
 TransDip   0.051 -0.005  0.014   -0.003  0.125  0.038   -0.009  0.236  0.074

 Mode:                10                     11                     12
 Frequency:       959.89                 965.62                1184.61
 Force Cnst:      0.5980                 1.0176                 1.7001
 Red. Mass:       1.1016                 1.8524                 2.0562
 IR Active:          YES                    YES                    YES
 IR Intens:       18.043                 37.679                 16.150
 Raman Active:       YES                    YES                    YES
               X      Y      Z        X      Y      Z        X      Y      Z
 C          0.009 -0.003  0.005   -0.165  0.026 -0.098    0.058  0.034 -0.100
 C          0.005 -0.087 -0.028   -0.052 -0.006 -0.010    0.085 -0.065  0.203
 H          0.035 -0.244 -0.107   -0.561 -0.193  0.504   -0.012 -0.014  0.042
 H         -0.030  0.760  0.248    0.201  0.064  0.042    0.344 -0.067  0.240
 H         -0.005  0.005 -0.008    0.000  0.006  0.001   -0.000 -0.007 -0.003
 O         -0.008  0.004 -0.001    0.153 -0.014  0.057   -0.128  0.017 -0.062
 H          0.002 -0.031 -0.001   -0.008  0.043 -0.134   -0.495  0.139 -0.459
 H         -0.005  0.014 -0.008    0.001 -0.002 -0.002   -0.002  0.006  0.002
 H         -0.041  0.498  0.167    0.505  0.076 -0.021    0.499  0.039 -0.069
 TransDip   0.009  0.129  0.042   -0.194  0.016 -0.027    0.128  0.008 -0.015

 Mode:                13                     14                     15
 Frequency:      1332.11                1366.56                1459.55
 Force Cnst:      1.5364                 1.3172                 1.4819
 Red. Mass:       1.4695                 1.1972                 1.1807
 IR Active:          YES                    YES                    YES
 IR Intens:      178.514                 44.959                  0.681
 Raman Active:       YES                    YES                    YES
               X      Y      Z        X      Y      Z        X      Y      Z
 C         -0.075 -0.009  0.021   -0.004 -0.025  0.077   -0.065 -0.017  0.046
 C          0.099 -0.015  0.054   -0.013  0.030 -0.091   -0.089 -0.002 -0.002
 H         -0.227 -0.085  0.239    0.015 -0.010  0.032    0.339  0.190 -0.552
 H          0.507 -0.020  0.099    0.774  0.021 -0.004    0.361 -0.007  0.053
 H         -0.001 -0.007 -0.003    0.000  0.002  0.000    0.001  0.002 -0.000
 O         -0.054  0.035 -0.112    0.007 -0.009  0.028    0.024  0.006 -0.017
 H          0.489 -0.160  0.526   -0.322  0.107 -0.349    0.169 -0.046  0.152
 H         -0.001  0.006  0.001   -0.001 -0.002  0.000   -0.000 -0.001  0.000
 H         -0.197 -0.014  0.024   -0.376 -0.028  0.053    0.579 -0.009  0.082
 TransDip   0.396 -0.037  0.158   -0.198  0.023 -0.081    0.025 -0.002  0.009

 Mode:                16                     17                     18
 Frequency:      1760.09                3189.77                3230.04
 Force Cnst:      7.4734                 6.3436                 6.7352
 Red. Mass:       4.0945                 1.0582                 1.0957
 IR Active:          YES                    YES                    YES
 IR Intens:       84.496                  1.963                 19.782
 Raman Active:       YES                    YES                    YES
               X      Y      Z        X      Y      Z        X      Y      Z
 C         -0.292 -0.052  0.134    0.056  0.012 -0.033   -0.006 -0.008  0.024
 C          0.396  0.046 -0.108   -0.005  0.003 -0.011    0.017  0.027 -0.079
 H         -0.039  0.110 -0.342   -0.548  0.096 -0.337   -0.023  0.004 -0.014
 H         -0.417  0.078 -0.270   -0.017 -0.055  0.166   -0.115 -0.301  0.908
 H         -0.002 -0.011 -0.006    0.000  0.000  0.000   -0.000  0.000 -0.000
 O         -0.050 -0.009  0.023   -0.000  0.000 -0.000   -0.001 -0.000  0.001
 H         -0.307  0.085 -0.282    0.005  0.001 -0.002    0.012  0.007 -0.019
 H         -0.003  0.012  0.002   -0.000 -0.000 -0.000    0.000 -0.000  0.000
 H          0.316 -0.064  0.227   -0.041 -0.231  0.698    0.017  0.078 -0.236
 TransDip   0.284  0.039 -0.068   -0.003  0.012 -0.043   -0.004  0.047 -0.134

 Mode:                19                     20                     21
 Frequency:      3277.64                3703.24                4488.89
 Force Cnst:      7.0705                 8.6206                11.9651
 Red. Mass:       1.1171                 1.0669                 1.0078
 IR Active:          YES                    YES                    YES
 IR Intens:       11.265                 53.414                  0.969
 Raman Active:       YES                    YES                    YES
               X      Y      Z        X      Y      Z        X      Y      Z
 C         -0.052  0.025 -0.079    0.001  0.000 -0.000   -0.000 -0.000  0.000
 C          0.003  0.006 -0.017    0.000 -0.001  0.004    0.000  0.000  0.000
 H          0.645 -0.107  0.379   -0.000 -0.000  0.000   -0.000  0.000  0.000
 H         -0.024 -0.058  0.174    0.009  0.006 -0.019    0.000 -0.000  0.000
 H          0.000  0.000  0.000   -0.000 -0.000 -0.000    0.575 -0.094  0.402
 O          0.000 -0.000  0.001   -0.049 -0.013  0.036   -0.000 -0.000 -0.000
 H          0.005  0.002 -0.004    0.766  0.218 -0.601    0.000 -0.000 -0.000
 H         -0.000 -0.000 -0.000    0.000 -0.000  0.000   -0.574  0.093 -0.401
 H         -0.049 -0.195  0.587    0.001  0.001 -0.002    0.000 -0.000 -0.000
 TransDip  -0.041  0.032 -0.094    0.211  0.039 -0.093    0.007 -0.031 -0.002

 STANDARD THERMODYNAMIC QUANTITIES AT   298.15 K  AND     1.00 ATM

   This Molecule has  3 Imaginary Frequencies
   Zero point vibrational energy:       42.449 kcal/mol

   Atom    1 Element C  Has Mass   12.00000
   Atom    2 Element C  Has Mass   12.00000
   Atom    3 Element H  Has Mass    1.00783
   Atom    4 Element H  Has Mass    1.00783
   Atom    5 Element H  Has Mass    1.00783
   Atom    6 Element O  Has Mass   15.99491
   Atom    7 Element H  Has Mass    1.00783
   Atom    8 Element H  Has Mass    1.00783
   Atom    9 Element H  Has Mass    1.00783
   Molecular Mass:    46.041890 amu
   Principal axes and moments of inertia in amu*Bohr^2:
                             1           2           3
    Eigenvalues --       88.15990   199.59889   234.25348
          X               0.99941    -0.00527    -0.03379
          Y               0.00653     0.99928     0.03735
          Z               0.03357    -0.03754     0.99873
   Rotational Symmetry Number is   1
   The Molecule is an Asymmetric Top
   Translational Enthalpy:        0.889 kcal/mol
   Rotational Enthalpy:           0.889 kcal/mol
   Vibrational Enthalpy:         43.748 kcal/mol
   gas constant (RT):             0.592 kcal/mol
   Translational Entropy:        37.406  cal/mol.K
   Rotational Entropy:           22.937  cal/mol.K
   Vibrational Entropy:           7.515  cal/mol.K

   Total Enthalpy:               46.118 kcal/mol
   Total Entropy:                67.858  cal/mol.K
Archival summary:
1\1\node018\FREQ\ProcedureUnspecified\6-31G*\126\guest94\SunMar2217:01:582020SunMar2217:01:582020\0\\#,FREQ,ProcedureUnspecified,6-31G*,\\0,1\C\H,1,1.08228\C,1,1.33137,2,123.775\H,3,1.08391,1,121.143,2,-0,0\H,3,1.08505,1,120.693,2,-180,0\O,1,1.36471,2,114.497,3,-180,0\H,6,0.973411,1,108.228,2,0.00417807,0\H,1,3.00806,2,105.676,3,87.9596,0\H,8,0.74,1,94.0996,2,118.833,0\\\@

 Total job time:  11.91s(wall), 29.19s(cpu) 
 Sun Mar 22 17:01:58 2020

        *************************************************************
        *                                                           *
        *  Thank you very much for using Q-Chem.  Have a nice day.  *
        *                                                           *
        *************************************************************


